# vtk DataFile Version 3.0
Output from cR2
ASCII
DATASET UNSTRUCTURED_GRID
POINTS       2205 double
     0.00000     0.00000   0.
     0.00000    -0.14000   0.
     0.00000    -0.28000   0.
     0.00000    -0.41000   0.
     0.00000    -0.55000   0.
     0.00000    -0.69000   0.
     0.00000    -0.83000   0.
     0.00000    -0.96000   0.
     0.00000    -1.10000   0.
     0.00000    -1.24000   0.
     0.00000    -1.38000   0.
     0.00000    -1.51000   0.
     0.00000    -1.65000   0.
     0.00000    -1.73000   0.
     0.00000    -1.80000   0.
     0.00000    -1.88000   0.
     0.00000    -1.95000   0.
     0.00000    -2.03000   0.
     0.00000    -2.11000   0.
     0.00000    -2.18000   0.
     0.00000    -2.26000   0.
     0.00000    -2.34000   0.
     0.00000    -2.41000   0.
     0.00000    -2.49000   0.
     0.00000    -2.56000   0.
     0.00000    -2.64000   0.
     0.00000    -2.72000   0.
     0.00000    -2.79000   0.
     0.00000    -2.87000   0.
     0.00000    -2.95000   0.
     0.00000    -3.02000   0.
     0.00000    -3.10000   0.
     0.00000    -3.17000   0.
     0.00000    -3.25000   0.
     0.00000    -3.33000   0.
     0.00000    -3.40000   0.
     0.00000    -3.48000   0.
     0.00000    -3.55000   0.
     0.00000    -3.63000   0.
     0.00000    -3.71000   0.
     0.00000    -3.78000   0.
     0.00000    -3.86000   0.
     0.00000    -3.94000   0.
     0.00000    -4.01000   0.
     0.00000    -4.09000   0.
     0.00000    -4.16000   0.
     0.00000    -4.24000   0.
     0.00000    -4.32000   0.
     0.00000    -4.39000   0.
     0.00000    -4.47000   0.
     0.00000    -4.55000   0.
     0.00000    -4.62000   0.
     0.00000    -4.70000   0.
     0.00000    -4.77000   0.
     0.00000    -4.85000   0.
     0.00000    -4.93000   0.
     0.00000    -5.00000   0.
     0.00000    -5.08000   0.
     0.00000    -5.16000   0.
     0.00000    -5.23000   0.
     0.00000    -5.31000   0.
     0.00000    -5.38000   0.
     0.00000    -5.46000   0.
     0.00000    -5.54000   0.
     0.00000    -5.61000   0.
     0.00000    -5.69000   0.
     0.00000    -5.76000   0.
     0.00000    -5.84000   0.
     0.00000    -5.92000   0.
     0.00000    -5.99000   0.
     0.00000    -6.07000   0.
     0.00000    -6.15000   0.
     0.00000    -6.22000   0.
     0.00000    -6.30000   0.
     0.00000    -6.37000   0.
     0.00000    -6.45000   0.
     0.00000    -6.53000   0.
     0.00000    -6.60000   0.
     0.00000    -6.68000   0.
     0.00000    -6.76000   0.
     0.00000    -6.83000   0.
     0.00000    -6.91000   0.
     0.00000    -6.98000   0.
     0.00000    -7.06000   0.
     0.00000    -7.14000   0.
     0.00000    -7.21000   0.
     0.00000    -7.29000   0.
     0.00000    -7.36000   0.
     0.00000    -7.44000   0.
     0.00000    -7.52000   0.
     0.00000    -7.59000   0.
     0.00000    -7.67000   0.
     0.00000    -7.75000   0.
     0.00000    -7.82000   0.
     0.00000    -7.90000   0.
     0.00000    -7.97000   0.
     0.00000    -8.05000   0.
     0.00000    -8.13000   0.
     0.00000    -8.20000   0.
     0.00000    -8.28000   0.
     0.00000    -8.36000   0.
     0.00000    -8.43000   0.
     0.00000    -8.51000   0.
     0.00000    -8.58000   0.
     0.00000    -8.66000   0.
     0.20000     0.00000   0.
     0.20000    -0.14000   0.
     0.20000    -0.28000   0.
     0.20000    -0.41000   0.
     0.20000    -0.55000   0.
     0.20000    -0.69000   0.
     0.20000    -0.83000   0.
     0.20000    -0.96000   0.
     0.20000    -1.10000   0.
     0.20000    -1.24000   0.
     0.20000    -1.38000   0.
     0.20000    -1.51000   0.
     0.20000    -1.65000   0.
     0.20000    -1.73000   0.
     0.20000    -1.80000   0.
     0.20000    -1.88000   0.
     0.20000    -1.95000   0.
     0.20000    -2.03000   0.
     0.20000    -2.11000   0.
     0.20000    -2.18000   0.
     0.20000    -2.26000   0.
     0.20000    -2.34000   0.
     0.20000    -2.41000   0.
     0.20000    -2.49000   0.
     0.20000    -2.56000   0.
     0.20000    -2.64000   0.
     0.20000    -2.72000   0.
     0.20000    -2.79000   0.
     0.20000    -2.87000   0.
     0.20000    -2.95000   0.
     0.20000    -3.02000   0.
     0.20000    -3.10000   0.
     0.20000    -3.17000   0.
     0.20000    -3.25000   0.
     0.20000    -3.33000   0.
     0.20000    -3.40000   0.
     0.20000    -3.48000   0.
     0.20000    -3.55000   0.
     0.20000    -3.63000   0.
     0.20000    -3.71000   0.
     0.20000    -3.78000   0.
     0.20000    -3.86000   0.
     0.20000    -3.94000   0.
     0.20000    -4.01000   0.
     0.20000    -4.09000   0.
     0.20000    -4.16000   0.
     0.20000    -4.24000   0.
     0.20000    -4.32000   0.
     0.20000    -4.39000   0.
     0.20000    -4.47000   0.
     0.20000    -4.55000   0.
     0.20000    -4.62000   0.
     0.20000    -4.70000   0.
     0.20000    -4.77000   0.
     0.20000    -4.85000   0.
     0.20000    -4.93000   0.
     0.20000    -5.00000   0.
     0.20000    -5.08000   0.
     0.20000    -5.16000   0.
     0.20000    -5.23000   0.
     0.20000    -5.31000   0.
     0.20000    -5.38000   0.
     0.20000    -5.46000   0.
     0.20000    -5.54000   0.
     0.20000    -5.61000   0.
     0.20000    -5.69000   0.
     0.20000    -5.76000   0.
     0.20000    -5.84000   0.
     0.20000    -5.92000   0.
     0.20000    -5.99000   0.
     0.20000    -6.07000   0.
     0.20000    -6.15000   0.
     0.20000    -6.22000   0.
     0.20000    -6.30000   0.
     0.20000    -6.37000   0.
     0.20000    -6.45000   0.
     0.20000    -6.53000   0.
     0.20000    -6.60000   0.
     0.20000    -6.68000   0.
     0.20000    -6.76000   0.
     0.20000    -6.83000   0.
     0.20000    -6.91000   0.
     0.20000    -6.98000   0.
     0.20000    -7.06000   0.
     0.20000    -7.14000   0.
     0.20000    -7.21000   0.
     0.20000    -7.29000   0.
     0.20000    -7.36000   0.
     0.20000    -7.44000   0.
     0.20000    -7.52000   0.
     0.20000    -7.59000   0.
     0.20000    -7.67000   0.
     0.20000    -7.75000   0.
     0.20000    -7.82000   0.
     0.20000    -7.90000   0.
     0.20000    -7.97000   0.
     0.20000    -8.05000   0.
     0.20000    -8.13000   0.
     0.20000    -8.20000   0.
     0.20000    -8.28000   0.
     0.20000    -8.36000   0.
     0.20000    -8.43000   0.
     0.20000    -8.51000   0.
     0.20000    -8.58000   0.
     0.20000    -8.66000   0.
     0.40000     0.00000   0.
     0.40000    -0.14000   0.
     0.40000    -0.28000   0.
     0.40000    -0.41000   0.
     0.40000    -0.55000   0.
     0.40000    -0.69000   0.
     0.40000    -0.83000   0.
     0.40000    -0.96000   0.
     0.40000    -1.10000   0.
     0.40000    -1.24000   0.
     0.40000    -1.38000   0.
     0.40000    -1.51000   0.
     0.40000    -1.65000   0.
     0.40000    -1.73000   0.
     0.40000    -1.80000   0.
     0.40000    -1.88000   0.
     0.40000    -1.95000   0.
     0.40000    -2.03000   0.
     0.40000    -2.11000   0.
     0.40000    -2.18000   0.
     0.40000    -2.26000   0.
     0.40000    -2.34000   0.
     0.40000    -2.41000   0.
     0.40000    -2.49000   0.
     0.40000    -2.56000   0.
     0.40000    -2.64000   0.
     0.40000    -2.72000   0.
     0.40000    -2.79000   0.
     0.40000    -2.87000   0.
     0.40000    -2.95000   0.
     0.40000    -3.02000   0.
     0.40000    -3.10000   0.
     0.40000    -3.17000   0.
     0.40000    -3.25000   0.
     0.40000    -3.33000   0.
     0.40000    -3.40000   0.
     0.40000    -3.48000   0.
     0.40000    -3.55000   0.
     0.40000    -3.63000   0.
     0.40000    -3.71000   0.
     0.40000    -3.78000   0.
     0.40000    -3.86000   0.
     0.40000    -3.94000   0.
     0.40000    -4.01000   0.
     0.40000    -4.09000   0.
     0.40000    -4.16000   0.
     0.40000    -4.24000   0.
     0.40000    -4.32000   0.
     0.40000    -4.39000   0.
     0.40000    -4.47000   0.
     0.40000    -4.55000   0.
     0.40000    -4.62000   0.
     0.40000    -4.70000   0.
     0.40000    -4.77000   0.
     0.40000    -4.85000   0.
     0.40000    -4.93000   0.
     0.40000    -5.00000   0.
     0.40000    -5.08000   0.
     0.40000    -5.16000   0.
     0.40000    -5.23000   0.
     0.40000    -5.31000   0.
     0.40000    -5.38000   0.
     0.40000    -5.46000   0.
     0.40000    -5.54000   0.
     0.40000    -5.61000   0.
     0.40000    -5.69000   0.
     0.40000    -5.76000   0.
     0.40000    -5.84000   0.
     0.40000    -5.92000   0.
     0.40000    -5.99000   0.
     0.40000    -6.07000   0.
     0.40000    -6.15000   0.
     0.40000    -6.22000   0.
     0.40000    -6.30000   0.
     0.40000    -6.37000   0.
     0.40000    -6.45000   0.
     0.40000    -6.53000   0.
     0.40000    -6.60000   0.
     0.40000    -6.68000   0.
     0.40000    -6.76000   0.
     0.40000    -6.83000   0.
     0.40000    -6.91000   0.
     0.40000    -6.98000   0.
     0.40000    -7.06000   0.
     0.40000    -7.14000   0.
     0.40000    -7.21000   0.
     0.40000    -7.29000   0.
     0.40000    -7.36000   0.
     0.40000    -7.44000   0.
     0.40000    -7.52000   0.
     0.40000    -7.59000   0.
     0.40000    -7.67000   0.
     0.40000    -7.75000   0.
     0.40000    -7.82000   0.
     0.40000    -7.90000   0.
     0.40000    -7.97000   0.
     0.40000    -8.05000   0.
     0.40000    -8.13000   0.
     0.40000    -8.20000   0.
     0.40000    -8.28000   0.
     0.40000    -8.36000   0.
     0.40000    -8.43000   0.
     0.40000    -8.51000   0.
     0.40000    -8.58000   0.
     0.40000    -8.66000   0.
     0.59000     0.00000   0.
     0.59000    -0.14000   0.
     0.59000    -0.28000   0.
     0.59000    -0.41000   0.
[...]
POINT_DATA      2205
CELL_DATA      2080
SCALARS Magnitude(ohm.m) double 1
LOOKUP_TABLE default
            28.39603            28.39603            28.39603            28.39603            28.39603            28.39603            28.39603            28.39603            31.58707            31.58707            31.58707            31.58707            31.58707            31.58707            31.58707            31.58707            33.54375            33.54375            33.54375            33.54375            33.54375            33.54375            33.18431            33.18431            33.18431            33.18431            33.18431            33.18431            33.56957            33.56957            33.56957            33.56957            33.56957            33.56957            25.64776            25.64776            25.64776            25.64776            25.64776            25.64776            14.43988            14.43988            14.43988            14.43988            14.43988            14.43988            10.21369            10.21369            10.21369            10.21369            10.21369            10.21369             8.56455             8.56455             8.56455             8.56455             8.56455             8.56455             9.93831             9.93831             9.93831             9.93831             9.93831             9.93831             7.53391             7.53391             7.53391             7.53391             7.53391             7.53391            10.04523            10.04523            10.04523            10.04523            10.04523            10.04523            10.04523            21.87110            21.87110            21.87110            21.87110            21.87110            21.87110            21.87110            19.89036            19.89036            19.89036            19.89036            19.89036            19.89036            19.89036            30.77170            30.77170            30.77170            30.77170            30.77170            30.77170            30.77170            30.54389            30.54389            30.54389            30.54389            30.54389            30.54389            31.61196            31.61196            31.61196            31.61196            31.61196            31.61196            31.61196            31.61196            37.48363            37.48363            37.48363            37.48363            37.48363            37.48363            37.48363            37.48363            42.10989            42.10989            42.10989            42.10989            42.10989            42.10989            43.87379            43.87379            43.87379            43.87379            43.87379            43.87379            40.71951            40.71951            40.71951            40.71951            40.71951            40.71951            26.73761            26.73761            26.73761            26.73761            26.73761            26.73761            15.29317            15.29317            15.29317            15.29317            15.29317            15.29317            13.57968            13.57968            13.57968            13.57968            13.57968            13.57968            11.98807            11.98807            11.98807            11.98807            11.98807            11.98807            12.31314            12.31314            12.31314            12.31314            12.31314            12.31314            10.71072            10.71072            10.71072            10.71072            10.71072            10.71072            12.43512            12.43512            12.43512            12.43512            12.43512            12.43512            12.43512            21.77974            21.77974            21.77974            21.77974            21.77974            21.77974            21.77974            27.19102            27.19102            27.19102            27.19102            27.19102            27.19102            27.19102            46.68843            46.68843            46.68843            46.68843            46.68843            46.68843            46.68843            33.55483            33.55483            33.55483            33.55483            33.55483            33.55483            35.34187            35.34187            35.34187            35.34187            35.34187            35.34187            35.34187            35.34187            42.42187            42.42187            42.42187            42.42187            42.42187            42.42187            42.42187            42.42187            47.05509            47.05509            47.05509            47.05509            47.05509            47.05509            47.92830            47.92830            47.92830            47.92830            47.92830            47.92830            43.01252            43.01252            43.01252            43.01252            43.01252            43.01252            30.46374            30.46374            30.46374            30.46374            30.46374            30.46374            21.12846            21.12846            21.12846            21.12846            21.12846            21.12846            20.30251            20.30251            20.30251            20.30251            20.30251            20.30251            20.52923            20.52923            20.52923            20.52923            20.52923            20.52923            20.81847            20.81847            20.81847            20.81847            20.81847            20.81847            20.03700            20.03700            20.03700            20.03700            20.03700            20.03700            21.27030            21.27030            21.27030            21.27030            21.27030            21.27030            21.27030            29.48738            29.48738            29.48738            29.48738            29.48738            29.48738            29.48738            45.55248            45.55248            45.55248            45.55248            45.55248            45.55248            45.55248            68.25702            68.25702            68.25702            68.25702            68.25702            68.25702            68.25702            34.42517            34.42517            34.42517            34.42517            34.42517            34.42517            40.60082            40.60082            40.60082            40.60082            40.60082            40.60082            40.60082            40.60082            48.92240            48.92240            48.92240            48.92240            48.92240            48.92240            48.92240            48.92240            50.34599            50.34599            50.34599            50.34599            50.34599            50.34599            48.51528            48.51528            48.51528            48.51528            48.51528            48.51528            43.07319            43.07319            43.07319            43.07319            43.07319            43.07319            33.19487            33.19487            33.19487            33.19487            33.19487            33.19487            26.25396            26.25396            26.25396            26.25396            26.25396            26.25396            26.73189            26.73189            26.73189            26.73189            26.73189            26.73189            29.88449            29.88449            29.88449            29.88449            29.88449            29.88449            32.01764            32.01764            32.01764            32.01764            32.01764            32.01764            32.22385            32.22385            32.22385            32.22385            32.22385            32.22385            32.83700            32.83700            32.83700            32.83700            32.83700            32.83700            32.83700            41.01710            41.01710            41.01710            41.01710            41.01710            41.01710            41.01710            64.90885            64.90885            64.90885            64.90885            64.90885            64.90885            64.90885            81.02862            81.02862            81.02862            81.02862            81.02862            81.02862            81.02862            34.28612            34.28612            34.28612            34.28612            34.28612            34.28612            47.89819            47.89819            47.89819            47.89819            47.89819            47.89819            47.89819            47.89819            57.95920            57.95920            57.95920            57.95920            57.95920            57.95920            57.95920            57.95920             1.12574             1.12574             1.12574             1.12574             1.12574             1.12574             1.22292             1.22292             1.22292             1.22292             1.22292             1.22292             1.32654             1.32654             1.32654             1.32654             1.32654             1.32654             1.34339             1.34339             1.34339             1.34339             1.34339             1.34339             1.32064             1.32064             1.32064             1.32064             1.32064             1.32064             1.45485             1.45485             1.45485             1.45485             1.45485             1.45485             1.86382             1.86382             1.86382             1.86382             1.86382             1.86382             2.45626             2.45626             2.45626             2.45626             2.45626             2.45626             2.88851             2.88851             2.88851             2.88851             2.88851             2.88851             2.84837             2.84837             2.84837             2.84837             2.84837             2.84837             2.84837             2.41387             2.41387             2.41387             2.41387             2.41387             2.41387             2.41387             1.84573             1.84573             1.84573             1.84573             1.84573             1.84573             1.84573             1.54609             1.54609             1.54609             1.54609             1.54609             1.54609             1.54609            31.86720            31.86720            31.86720            31.86720            31.86720            31.86720            57.03996            57.03996            57.03996            57.03996            57.03996            57.03996            57.03996            57.03996            68.42062            68.42062            68.42062            68.42062            68.42062            68.42062            68.42062            68.42062             0.95615             0.95615             0.95615             0.95615             0.95615             0.95615             0.99951             0.99951             0.99951             0.99951             0.99951             0.99951             1.00840             1.00840             1.00840             1.00840             1.00840             1.00840             0.94478             0.94478             0.94478             0.94478             0.94478             0.94478             0.86139             0.86139             0.86139             0.86139             0.86139             0.86139             0.90526             0.90526             0.90526             0.90526             0.90526             0.90526             1.18771             1.18771             1.18771             1.18771             1.18771             1.18771             1.67542             1.67542             1.67542             1.67542             1.67542             1.67542             2.11243             2.11243             2.11243             2.11243             2.11243             2.11243             2.16447             2.16447             2.16447             2.16447             2.16447             2.16447             2.16447             1.82485             1.82485             1.82485             1.82485             1.82485             1.82485             1.82485             1.27453             1.27453             1.27453             1.27453             1.27453             1.27453             1.27453             0.93322             0.93322             0.93322             0.93322             0.93322             0.93322             0.93322            30.62991            30.62991            30.62991            30.62991            30.62991            30.62991            66.93858            66.93858            66.93858            66.93858            66.93858            66.93858            66.93858            66.93858            78.93670            78.93670            78.93670            78.93670            78.93670            78.93670            78.93670            78.93670             0.78137             0.78137             0.78137             0.78137             0.78137             0.78137             0.77073             0.77073             0.77073             0.77073             0.77073             0.77073             0.70125             0.70125             0.70125             0.70125             0.70125             0.70125             0.57837             0.57837             0.57837             0.57837             0.57837             0.57837             0.45433             0.45433             0.45433             0.45433             0.45433             0.45433             0.43287             0.43287             0.43287             0.43287             0.43287             0.43287             0.58250             0.58250             0.58250             0.58250             0.58250             0.58250             0.89840             0.89840             0.89840             0.89840             0.89840             0.89840             1.24492             1.24492             1.24492             1.24492             1.24492             1.24492             1.31590             1.31590             1.31590             1.31590             1.31590             1.31590             1.31590             1.11221             1.11221             1.11221             1.11221             1.11221             1.11221             1.11221             0.71338             0.71338             0.71338             0.71338             0.71338             0.71338             0.71338             0.42415             0.42415             0.42415             0.42415             0.42415             0.42415             0.42415            29.40573            29.40573            29.40573            29.40573            29.40573            29.40573            75.82074            75.82074            75.82074            75.82074            75.82074            75.82074            75.82074            75.82074            85.20221            85.20221            85.20221            85.20221            85.20221            85.20221            85.20221            85.20221             0.68457             0.68457             0.68457             0.68457             0.68457             0.68457             0.64484             0.64484             0.64484             0.64484             0.64484             0.64484             0.53926             0.53926             0.53926             0.53926             0.53926             0.53926             0.39901             0.39901             0.39901             0.39901             0.39901             0.39901             0.26750             0.26750             0.26750             0.26750             0.26750             0.26750             0.22748             0.22748             0.22748             0.22748             0.22748             0.22748             0.31177             0.31177             0.31177             0.31177             0.31177             0.31177             0.51754             0.51754             0.51754             0.51754             0.51754             0.51754             0.77319             0.77319             0.77319             0.77319             0.77319             0.77319             0.77552             0.77552             0.77552             0.77552             0.77552             0.77552             0.77552             0.67894             0.67894             0.67894             0.67894             0.67894             0.67894             0.67894             0.43178             0.43178             0.43178             0.43178             0.43178             0.43178             0.43178             0.18486             0.18486             0.18486             0.18486             0.18486             0.18486             0.18486            28.10994            28.10994            28.10994            28.10994            28.10994            28.10994            81.08690            81.08690            81.08690            81.08690            81.08690            81.08690            81.08690            81.08690            78.09871            78.09871            78.09871            78.09871            78.09871            78.09871            78.09871            78.09871            43.63593            43.63593            43.63593            43.63593            43.63593            43.63593            18.88404            18.88404            18.88404            18.88404            18.88404            18.88404             7.16422             7.16422             7.16422             7.16422             7.16422             7.16422             2.69702             2.69702             2.69702             2.69702             2.69702             2.69702             0.77136             0.77136             0.77136             0.77136             0.77136             0.77136             0.30951             0.30951             0.30951             0.30951             0.30951             0.30951             0.19416             0.19416             0.19416             0.19416             0.19416             0.19416             0.20766             0.20766             0.20766             0.20766             0.20766             0.20766             0.23142             0.23142             0.23142             0.23142             0.23142             0.23142             0.53624             0.53624             0.53624             0.53624             0.53624             0.53624             0.53624             0.61126             0.61126             0.61126             0.61126             0.61126             0.61126             0.61126             0.43550             0.43550             0.43550             0.43550             0.43550             0.43550             0.43550             0.10249             0.10249             0.10249             0.10249             0.10249             0.10249             0.10249            26.83188            26.83188            26.83188            26.83188            26.83188            26.83188            85.43627            85.43627            85.43627            85.43627            85.43627            85.43627            85.43627            85.43627            76.29130            76.29130            76.29130            76.29130            76.29130            76.29130            76.29130            76.29130            43.29522            43.29522            43.29522            43.29522            43.29522            43.29522            30.38899            30.38899            30.38899            30.38899            30.38899            30.38899            14.18226            14.18226            14.18226            14.18226            14.18226            14.18226             5.25991             5.25991             5.25991             5.25991             5.25991             5.25991             1.74693             1.74693             1.74693             1.74693             1.74693             1.74693             1.03553             1.03553             1.03553             1.03553             1.03553             1.03553             0.48334             0.48334             0.48334             0.48334             0.48334             0.48334             0.52915