# vtk DataFile Version 3.0
Output from cR2
ASCII
DATASET UNSTRUCTURED_GRID
POINTS        509 double
     0.00000     0.00000   0.
     2.00000     0.00000   0.
     4.00000     0.00000   0.
     6.00000     0.00000   0.
     8.00000     0.00000   0.
    10.00000     0.00000   0.
    12.00000     0.00000   0.
    14.00000     0.00000   0.
    16.00000     0.00000   0.
    18.00000     0.00000   0.
    20.00000     0.00000   0.
    22.00000     0.00000   0.
    24.00000     0.00000   0.
    26.00000     0.00000   0.
    28.00000     0.00000   0.
    30.00000     0.00000   0.
    32.00000     0.00000   0.
    34.00000     0.00000   0.
    36.00000     0.00000   0.
    38.00000     0.00000   0.
    40.00000     0.00000   0.
    42.00000     0.00000   0.
    44.00000     0.00000   0.
    46.00000     0.00000   0.
    -0.57000   -15.33000   0.
     8.86000   -15.33000   0.
    18.29000   -15.33000   0.
    27.71000   -15.33000   0.
    37.14000   -15.33000   0.
    46.57000   -15.33000   0.
     1.00000     0.00000   0.
     3.00000     0.00000   0.
     5.00000     0.00000   0.
     7.00000     0.00000   0.
     9.00000     0.00000   0.
    11.00000     0.00000   0.
    13.00000     0.00000   0.
    15.00000     0.00000   0.
    17.00000     0.00000   0.
    19.00000     0.00000   0.
    21.00000     0.00000   0.
    23.00000     0.00000   0.
    25.00000     0.00000   0.
    27.00000     0.00000   0.
    29.00000     0.00000   0.
    31.00000     0.00000   0.
    33.00000     0.00000   0.
    35.00000     0.00000   0.
    37.00000     0.00000   0.
    39.00000     0.00000   0.
    41.00000     0.00000   0.
    43.00000     0.00000   0.
    45.00000     0.00000   0.
     1.31600   -15.33000   0.
     3.20200   -15.33000   0.
     5.08800   -15.33000   0.
     6.97400   -15.33000   0.
    10.74600   -15.33000   0.
    12.63200   -15.33000   0.
    14.51800   -15.33000   0.
    16.40400   -15.33000   0.
    20.17400   -15.33000   0.
    22.05800   -15.33000   0.
    23.94200   -15.33000   0.
    25.82600   -15.33000   0.
    29.59600   -15.33000   0.
    31.48200   -15.33000   0.
    33.36800   -15.33000   0.
    35.25400   -15.33000   0.
    39.02600   -15.33000   0.
    40.91200   -15.33000   0.
    42.79800   -15.33000   0.
    44.68400   -15.33000   0.
    30.50730    -0.80594   0.
    15.50000    -0.86603   0.
    19.53494    -0.94375   0.
    26.42063    -0.77019   0.
    11.46960    -0.86361   0.
    34.50123    -0.68943   0.
     2.50000    -0.86603   0.
    43.50764    -0.99223   0.
    38.46043    -0.86365   0.
     7.41810    -0.97176   0.
    22.61630    -0.89069   0.
     0.15705   -13.52258   0.
    45.35649   -13.74688   0.
    13.39455   -13.69902   0.
    32.40776   -13.78238   0.
    24.95156   -13.69129   0.
    39.93779   -13.75336   0.
     6.06896   -13.71724   0.
    18.97731   -13.71595   0.
    36.12498   -13.51570   0.
     9.74268   -13.70492   0.
    28.65361   -13.77892   0.
    -0.50992    -0.88205   0.
    46.48820    -0.86490   0.
    24.44119    -0.92547   0.
    28.60374    -0.93188   0.
    36.52987    -0.69923   0.
    40.48537    -0.83060   0.
     9.46413    -0.83198   0.
    13.45652    -0.83558   0.
     4.58898    -0.96815   0.
    32.46272    -0.90234   0.
    17.50000    -0.86603   0.
    46.43328    -6.89071   0.
    46.48822    -5.53091   0.
    45.30021    -6.13388   0.
    45.20656    -7.51006   0.
    44.05772    -6.72971   0.
    43.93943    -8.13487   0.
    42.78313    -7.32248   0.
    42.96201    -5.94398   0.
    41.64691    -6.51587   0.
    41.50340    -7.89902   0.
    40.36947    -7.08104   0.
    40.44220    -5.69928   0.
    39.21396    -6.24870   0.
    39.08512    -7.62457   0.
    37.97077    -6.78676   0.
    38.12081    -5.43438   0.
    36.86868    -5.94081   0.
    36.70031    -7.30286   0.
    35.58857    -6.44203   0.
    35.40844    -7.82247   0.
    34.31796    -6.94579   0.
    34.50693    -5.59132   0.
    33.25085    -6.07948   0.
    33.02353    -7.44433   0.
    31.95375    -6.55579   0.
    31.70841    -7.92017   0.
    30.63898    -7.01767   0.
    30.88878    -5.67502   0.
    29.59984    -6.12504   0.
    29.32657    -7.48382   0.
    28.27795    -6.56117   0.
    27.99036    -7.94320   0.
    26.94774    -6.99840   0.
    27.35727    -5.64329   0.
    26.00179    -6.05387   0.
    25.63736    -7.42499   0.
    24.61833    -6.51221   0.
    24.29101    -7.85272   0.
    23.25856    -6.93261   0.
    22.92765    -8.25622   0.
    21.89663    -7.30555   0.
    22.17660    -6.03794   0.
    20.84764    -6.37746   0.
    20.54052    -7.71199   0.
    19.50869    -6.73701   0.
    19.17884    -8.09568   0.
    18.13871    -7.11458   0.
    17.80805    -8.48245   0.
    16.78179    -7.48560   0.
    17.12054    -6.12893   0.
    15.78235    -6.49718   0.
    15.41420    -7.85907   0.
    14.41926    -6.85244   0.
    14.02900    -8.22353   0.
    13.04799    -7.19179   0.
    13.57013    -5.84010   0.
    12.15919    -5.97885   0.
    11.69256    -7.49367   0.
    10.72819    -6.46252   0.
    10.31408    -7.83218   0.
     9.33827    -6.80770   0.
     8.92915    -8.14476   0.
     7.97298    -7.11831   0.
     8.32050    -5.88121   0.
     6.98129    -6.14528   0.
     6.59986    -7.42984   0.
     5.54771    -6.15047   0.
     5.21294    -7.67084   0.
     4.17923    -6.58917   0.
     3.82999    -7.98470   0.
     2.84931    -6.92226   0.
     2.44919    -8.29434   0.
     1.49849    -7.22362   0.
     1.91663    -5.89557   0.
     0.60339    -6.17678   0.
     0.13411    -7.48016   0.
     6.21579    -5.03467   0.
    19.83670    -5.25106   0.
    10.99661    -5.18419   0.
    45.40970    -4.81000   0.
     1.05502    -4.90165   0.
     2.30743    -4.62834   0.
    16.14908    -5.18515   0.
    24.93379    -5.08540   0.
    29.84864    -4.79870   0.
    11.37655    -8.91429   0.
    36.53200    -8.72935   0.
    33.43182    -4.75881   0.
    34.66708    -4.29127   0.
    35.19450    -9.27358   0.
    25.31749    -8.89883   0.
     3.42128    -9.39969   0.
    15.05579    -9.27584   0.
    29.05454    -8.89161   0.
    20.28226    -9.18017   0.
     6.15763    -8.69185   0.
    45.13920    -8.94931   0.
    43.80438    -9.60638   0.
    46.53714    -4.22923   0.
    45.50110    -3.54086   0.
     1.95051    -9.71577   0.
     1.45940    -3.69310   0.
     2.67946    -3.43344   0.
     2.97629   -10.85964   0.
    33.69134    -3.49203   0.
     0.24670    -3.94169   0.
    17.41650    -4.83015   0.
    16.47450    -3.93385   0.
    17.68647    -3.58758   0.
    31.08810    -4.37446   0.
    30.08763    -3.55364   0.
    37.01332    -4.62142   0.
    38.27763    -4.12887   0.
    37.27461    -3.37097   0.
    31.23788    -3.07277   0.
    15.25671    -4.26332   0.
    28.91883    -3.97226   0.
    44.38452    -4.08837   0.
    36.35200   -10.21883   0.
    34.99495   -10.69369   0.
    34.82917    -3.00336   0.
     3.52557    -4.33878   0.
     3.87753    -3.16554   0.
    45.06593   -10.45916   0.
    43.66317   -11.15282   0.
     0.66117    -2.78680   0.
    46.60974    -3.01353   0.
    42.42878   -10.25265   0.
    44.48321    -2.87372   0.
    43.39829    -3.38190   0.
    13.65085    -9.62173   0.
    14.67709   -10.73963   0.
    27.68778    -9.37572   0.
    28.76145   -10.25112   0.
    27.28881   -10.94746   0.
    15.58542    -3.06670   0.
    14.40980    -3.36945   0.
    46.38315    -9.76434   0.
    32.79117    -8.85561   0.
    31.45145    -9.37215   0.
    37.70912    -9.63506   0.
    37.56239   -11.14259   0.
    38.94097   -10.54516   0.
    38.42022    -2.93847   0.
    39.37951    -3.63565   0.
    16.13683   -10.34408   0.
    15.79396   -11.87296   0.
     4.59945   -10.53342   0.
    17.26013   -11.42008   0.
    29.15188    -2.76939   0.
    28.00931    -3.15785   0.
    13.06001   -10.87063   0.
    32.54393   -10.26151   0.
    31.03844   -10.94052   0.
    42.22976   -11.83998   0.
    39.52451    -2.55501   0.
    40.42827    -3.29569   0.
     1.46711   -11.16995   0.
     2.50482   -12.41271   0.
    46.39847   -11.28059   0.
    -0.42144    -2.88366   0.
    37.54153    -2.35674   0.
    14.74996    -2.33724   0.
    13.60362    -2.58544   0.
    13.27078    -3.66554   0.
    12.44556    -2.83150   0.
    33.77207    -2.27183   0.
     0.52156    -9.95313   0.
    -0.14585   -11.50321   0.
     4.65892    -4.03086   0.
     5.01736    -2.87569   0.
     2.93484    -2.12296   0.
    32.79970    -2.72534   0.
    36.37031    -2.63074   0.
    43.66568   -12.74769   0.
    16.78328   -13.10401   0.
    12.14703    -3.92009   0.
    11.36527    -3.04663   0.
    18.60857    -4.41927   0.
    18.85453    -3.21702   0.
    17.98953    -2.40006   0.
    43.48238    -2.20400   0.
    42.45848    -2.69664   0.
    42.32287    -3.86515   0.
    44.72438    -1.65282   0.
    19.17208    -2.05891   0.
    19.98743    -2.73267   0.
    32.24453    -3.85755   0.
    31.77633    -1.94276   0.
    41.13480   -10.84563   0.
    42.51596    -1.60964   0.
    41.53819    -2.04319   0.
    35.74263    -5.11300   0.
    35.89033    -3.70393   0.
    35.34146    -1.86768   0.
     1.78947    -2.55343   0.
     1.05965    -1.75314   0.
    16.77432    -2.77939   0.
    42.01357   -13.66471   0.
    45.67440    -2.41986   0.
     4.20824    -2.01778   0.
     5.31437    -1.77360   0.
     6.13823    -2.55885   0.
     6.34939    -1.49221   0.
     7.22561    -2.20522   0.
     6.97598    -3.30466   0.
     8.08551    -2.95563   0.
     7.76609    -4.00574   0.
     9.03394    -3.63775   0.
     9.25735    -2.48207   0.
     8.24847    -1.81170   0.
     9.70597    -5.56033   0.
    30.15107    -2.37456   0.
[...]
POINT_DATA       509
CELL_DATA       916
SCALARS Magnitude(ohm.m) double 1
LOOKUP_TABLE default
           250.00000           250.00000           250.00000           250.00000           250.00000           250.00000           250.00000           250.00000           250.00000           250.00000           250.00000           250.00000           250.00000           250.00000           250.00000            10.00000           250.00000           250.00000           250.00000           250.00000           250.00000           250.00000           250.00000           100.00000           100.00000           250.00000           100.00000           100.00000            10.00000           250.00000            10.00000           250.00000           250.00000            10.00000           250.00000           250.00000           250.00000            10.00000           250.00000           250.00000           100.00000           250.00000           100.00000           250.00000           100.00000           250.00000           100.00000           250.00000           250.00000           250.00000           100.00000           250.00000           250.00000           250.00000           100.00000           250.00000           250.00000           100.00000           100.00000           100.00000           250.00000            10.00000           250.00000           250.00000           100.00000           100.00000           250.00000           250.00000           250.00000           250.00000           100.00000           250.00000           100.00000           250.00000            10.00000           100.00000           250.00000           100.00000           250.00000           250.00000           250.00000           250.00000           250.00000           250.00000           100.00000           250.00000           100.00000           250.00000           100.00000           250.00000           100.00000           100.00000           250.00000           250.00000           250.00000           100.00000           100.00000           250.00000            10.00000           100.00000           250.00000           250.00000           250.00000           100.00000           250.00000           250.00000           250.00000           250.00000           250.00000           250.00000            10.00000           250.00000           250.00000           250.00000           250.00000           250.00000           250.00000           250.00000           100.00000           100.00000           100.00000            10.00000           250.00000           250.00000           250.00000           250.00000           250.00000           100.00000           250.00000           250.00000           250.00000           250.00000           250.00000            10.00000           250.00000           250.00000           100.00000           250.00000           250.00000            10.00000           250.00000           250.00000           100.00000           100.00000           100.00000           250.00000           100.00000           100.00000           250.00000           100.00000           100.00000           250.00000           250.00000           250.00000            10.00000           250.00000           250.00000           250.00000           250.00000           250.00000           100.00000           100.00000           250.00000           250.00000           250.00000           250.00000           250.00000            10.00000           250.00000           100.00000           100.00000           100.00000           100.00000           100.00000           250.00000           250.00000           250.00000           250.00000            10.00000           250.00000           250.00000           100.00000           100.00000           250.00000            10.00000           250.00000           250.00000           250.00000           250.00000           250.00000           250.00000           250.00000           250.00000           250.00000           250.00000            10.00000           100.00000           250.00000           100.00000           100.00000           250.00000           250.00000           250.00000           250.00000           100.00000           250.00000           250.00000           250.00000           100.00000           100.00000           250.00000            10.00000           250.00000           250.00000           250.00000           250.00000           250.00000           250.00000           250.00000           250.00000           250.00000           250.00000           250.00000            10.00000           250.00000           250.00000           250.00000           250.00000           250.00000           250.00000           250.00000           100.00000           100.00000           250.00000           100.00000           250.00000           250.00000           100.00000           250.00000            10.00000           250.00000            10.00000           250.00000           100.00000           100.00000           250.00000           250.00000           250.00000           250.00000           250.00000            10.00000           250.00000           100.00000           250.00000           250.00000           250.00000           250.00000           250.00000           250.00000            10.00000           250.00000           250.00000           250.00000           250.00000           250.00000            10.00000            10.00000            10.00000           100.00000           100.00000            10.00000           250.00000           100.00000           250.00000           250.00000           250.00000            10.00000           100.00000           250.00000           100.00000           100.00000           100.00000           250.00000            10.00000           250.00000            10.00000           100.00000           100.00000           250.00000           250.00000           250.00000           250.00000           250.00000            10.00000           250.00000           250.00000           250.00000           250.00000           250.00000           100.00000           250.00000           250.00000           250.00000           250.00000           250.00000           100.00000           100.00000           250.00000           100.00000           100.00000           100.00000           100.00000           100.00000           100.00000           100.00000           100.00000           100.00000           100.00000           250.00000           250.00000           250.00000           250.00000           250.00000           250.00000           250.00000           250.00000            10.00000           250.00000           250.00000            10.00000           250.00000            10.00000            10.00000            10.00000           250.00000           250.00000            10.00000           100.00000           250.00000           250.00000           250.00000           250.00000            10.00000           250.00000            10.00000           250.00000           250.00000           250.00000            10.00000            10.00000           250.00000           100.00000           100.00000           100.00000           100.00000           100.00000           250.00000           250.00000           250.00000           250.00000           250.00000           250.00000           250.00000           250.00000            10.00000           250.00000           250.00000           250.00000           250.00000            10.00000           250.00000           250.00000           250.00000           250.00000           250.00000           250.00000           250.00000           250.00000           250.00000           250.00000           250.00000           100.00000           250.00000           250.00000           100.00000           250.00000           250.00000           250.00000           250.00000           250.00000            10.00000           250.00000           250.00000           250.00000           250.00000           250.00000            10.00000           250.00000           250.00000           250.00000           250.00000           250.00000           250.00000           250.00000           250.00000           250.00000           250.00000            10.00000           250.00000           100.00000           250.00000           250.00000           250.00000           100.00000            10.00000            10.00000           250.00000            10.00000            10.00000           100.00000           250.00000           250.00000           100.00000            10.00000            10.00000           250.00000           250.00000            10.00000            10.00000           100.00000            10.00000            10.00000            10.00000           250.00000            10.00000           100.00000           250.00000           100.00000           100.00000            10.00000            10.00000           250.00000            10.00000           250.00000           100.00000           250.00000           100.00000            10.00000           250.00000           250.00000           250.00000           250.00000           250.00000           250.00000           250.00000           100.00000           250.00000            10.00000           250.00000            10.00000           250.00000           250.00000            10.00000           250.00000            10.00000           250.00000            10.00000           250.00000            10.00000           250.00000           250.00000           250.00000           250.00000            10.00000           250.00000            10.00000           250.00000           250.00000           250.00000           250.00000            10.00000           250.00000           250.00000           250.00000           250.00000           250.00000           250.00000           250.00000           250.00000           250.00000           250.00000           250.00000           250.00000           250.00000           250.00000           250.00000           250.00000           250.00000           250.00000           250.00000           250.00000           250.00000           250.00000           250.00000           250.00000           250.00000           250.00000           250.00000           250.00000           250.00000           250.00000           250.00000           250.00000           250.00000           250.00000            10.00000           250.00000            10.00000           100.00000            10.00000           250.00000            10.00000            10.00000            10.00000            10.00000           100.00000            10.00000            10.00000           100.00000            10.00000           250.00000            10.00000            10.00000           100.00000           250.00000            10.00000           250.00000           250.00000            10.00000            10.00000           100.00000           250.00000           250.00000           100.00000           100.00000           250.00000           250.00000           250.00000           100.00000           250.00000            10.00000           250.00000            10.00000            10.00000            10.00000            10.00000            10.00000           250.00000           100.00000            10.00000           250.00000           250.00000           100.00000           250.00000            10.00000           250.00000           250.00000           100.00000           250.00000            10.00000            10.00000           250.00000           100.00000            10.00000           250.00000           250.00000           100.00000           100.00000           250.00000            10.00000            10.00000           250.00000           250.00000           100.00000            10.00000            10.00000           100.00000            10.00000           100.00000            10.00000           250.00000            10.00000           250.00000            10.00000            10.00000            10.00000            10.00000            10.00000           250.00000           250.00000            10.00000           250.00000           250.00000            10.00000            10.00000            10.00000            10.00000            10.00000            10.00000            10.00000           250.00000           250.00000            10.00000            10.00000            10.00000           100.00000           100.00000            10.00000           250.00000            10.00000           250.00000           250.00000            10.00000           250.00000           250.00000           250.00000           250.00000           250.00000           250.00000           250.00000           250.00000           250.00000           250.00000           250.00000           250.00000           250.00000           250.00000           250.00000           250.00000           250.00000           250.00000           250.00000           250.00000           250.00000            10.00000            10.00000            10.00000            10.00000           250.00000           100.00000           100.00000           100.00000           250.00000           250.00000           250.00000            10.00000           250.00000            10.00000           100.00000           250.00000            10.00000           100.00000           250.00000            10.00000            10.00000           250.00000           250.00000            10.00000           250.00000            10.00000            10.00000           250.00000           250.00000            10.00000           250.00000           250.00000            10.00000           250.00000           250.00000           250.00000            10.00000           100.00000           250.00000           250.00000            10.00000            10.00000           250.00000            10.00000           250.00000           100.00000            10.00000           250.00000           250.00000           250.00000           250.00000           250.00000           250.00000           250.00000           250.00000           250.00000           100.00000           250.00000           100.00000           250.00000            10.00000           250.00000            10.00000           250.00000           100.00000           100.00000           100.00000            10.00000            10.00000           100.00000           250.00000           100.00000            10.00000           100.00000           250.00000           250.00000           100.00000           250.00000           250.00000           100.00000           250.00000           100.00000           250.00000           250.00000           250.00000           250.00000           100.00000            10.00000           250.00000            10.00000           250.00000           250.00000            10.00000           250.00000           250.00000           100.00000           250.00000           250.00000           250.00000           250.00000           100.00000           100.00000           250.00000            10.00000            10.00000           250.00000           250.00000           250.00000           250.00000            10.00000           250.00000            10.00000           100.00000           100.00000           250.00000            10.00000           250.00000           250.00000           250.00000           250.00000           100.00000            10.00000            10.00000           250.00000            10.00000            10.00000            10.00000           100.00000           100.00000           250.00000           250.00000           250.00000            10.00000           250.00000           250.00000            10.00000           250.00000           250.00000           250.00000            10.00000           250.00000           100.00000           100.00000           250.00000           250.00000            10.00000           250.00000            10.00000            10.00000            10.00000           250.00000           250.00000           100.00000           250.00000            10.00000           250.00000           100.00000           250.00000           250.00000           250.00000           100.00000           100.00000           250.00000           100.00000            10.00000            10.00000            10.00000           250.00000           100.00000           250.00000           250.00000           250.00000           250.00000           100.00000           250.00000            10.00000           250.00000           250.00000            10.00000           100.00000           250.00000           100.00000           100.00000           250.00000           100.00000           250.00000           250.00000           250.00000           100.00000            10.00000           250.00000            10.00000           250.00000           250.00000           250.00000           100.00000           250.00000           100.00000           100.00000           100.00000           250.00000           100.00000           100.00000           250.00000           100.00000           100.00000           250.00000           250.00000           250.00000           100.00000           250.00000           250.00000           100.00000           100.00000            10.00000           250.00000           100.00000           250.00000            10.00000           250.00000           100.00000           250.00000           250.00000           250.00000           250.00000           250.00000           100.00000            10.00000           250.00000           250.00000           250.00000           250.00000           250.00000           100.00000           100.00000           250.00000           250.00000           250.00000           100.00000           250.00000           250.00000           100.00000           100.00000           250.00000           250.00000            10.00000           250.00000           250.00000            10.00000            10.00000           250.00000           250.00000           250.00000           100.00000           250.00000           250.00000           250.00000           100.00000            10.00000           250.00000           250.00000            10.00000            10.00000            10.00000           100.00000           250.00000           100.00000            10.00000           250.00000           100.00000           250.00000           250.00000
POINT_DATA       509
CELL_DATA       916
SCALARS Phase(mrad) double 1
LOOKUP_TABLE default