# vtk DataFile Version 3.0
Output from cR2
ASCII
DATASET UNSTRUCTURED_GRID
POINTS        614 double
     0.00000     0.00000   0.
     2.00000     0.00000   0.
     4.00000     0.00000   0.
     6.00000     0.00000   0.
     8.00000     0.00000   0.
    10.00000     0.00000   0.
    12.00000     0.00000   0.
    14.00000     0.00000   0.
    16.00000     0.00000   0.
    18.00000     0.00000   0.
    20.00000     0.00000   0.
    22.00000     0.00000   0.
    24.00000     0.00000   0.
    26.00000     0.00000   0.
    28.00000     0.00000   0.
    30.00000     0.00000   0.
    32.00000     0.00000   0.
    34.00000     0.00000   0.
    36.00000     0.00000   0.
    38.00000     0.00000   0.
    40.00000     0.00000   0.
    42.00000     0.00000   0.
    44.00000     0.00000   0.
    46.00000     0.00000   0.
    -0.57000   -15.33000   0.
     8.86000   -15.33000   0.
    18.29000   -15.33000   0.
    27.71000   -15.33000   0.
    37.14000   -15.33000   0.
    46.57000   -15.33000   0.
    -3.00000     0.00000   0.
    -2.00000     0.00000   0.
    -1.00000     0.00000   0.
     1.00000     0.00000   0.
     3.00000     0.00000   0.
     5.00000     0.00000   0.
     7.00000     0.00000   0.
     9.00000     0.00000   0.
    11.00000     0.00000   0.
    13.00000     0.00000   0.
    15.00000     0.00000   0.
    17.00000     0.00000   0.
    19.00000     0.00000   0.
    21.00000     0.00000   0.
    23.00000     0.00000   0.
    25.00000     0.00000   0.
    27.00000     0.00000   0.
    29.00000     0.00000   0.
    31.00000     0.00000   0.
    33.00000     0.00000   0.
    35.00000     0.00000   0.
    37.00000     0.00000   0.
    39.00000     0.00000   0.
    41.00000     0.00000   0.
    43.00000     0.00000   0.
    45.00000     0.00000   0.
    47.00000     0.00000   0.
    48.00000     0.00000   0.
    49.00000     0.00000   0.
    -2.45600   -15.33000   0.
     1.31600   -15.33000   0.
     3.20200   -15.33000   0.
     5.08800   -15.33000   0.
     6.97400   -15.33000   0.
    10.74600   -15.33000   0.
    12.63200   -15.33000   0.
    14.51800   -15.33000   0.
    16.40400   -15.33000   0.
    20.17400   -15.33000   0.
    22.05800   -15.33000   0.
    23.94200   -15.33000   0.
    25.82600   -15.33000   0.
    29.59600   -15.33000   0.
    31.48200   -15.33000   0.
    33.36800   -15.33000   0.
    35.25400   -15.33000   0.
    39.02600   -15.33000   0.
    40.91200   -15.33000   0.
    42.79800   -15.33000   0.
    44.68400   -15.33000   0.
    48.45600   -15.33000   0.
    23.00000   -16.96159   0.
    36.19700   -16.96332   0.
     9.80300   -16.96332   0.
     0.18440   -16.79514   0.
    45.68593   -17.01836   0.
    15.41651   -16.97166   0.
    28.65300   -16.96246   0.
    32.64133   -17.21687   0.
     6.02113   -16.91260   0.
    49.39900   -16.96332   0.
    38.08300   -16.96332   0.
    41.63941   -17.21565   0.
    37.14000   -19.07362   0.
    39.98795   -18.67430   0.
    42.54865   -19.58373   0.
    34.61975   -18.61964   0.
    31.83105   -19.86146   0.
    34.41602   -16.69197   0.
     7.74996   -17.26610   0.
     8.61941   -19.61742   0.
    11.57645   -19.02193   0.
     5.96097   -18.97827   0.
    11.66649   -16.72172   0.
    -1.36212   -16.76150   0.
     1.86457   -17.40115   0.
    24.88400   -16.96159   0.
    23.94200   -19.06874   0.
    19.44741   -17.21501   0.
    21.09822   -18.67276   0.
    18.50551   -19.69909   0.
    26.75815   -19.04231   0.
    15.36949   -19.48838   0.
    43.73703   -17.31356   0.
    26.76623   -16.72527   0.
    39.94091   -16.77713   0.
    17.23882   -17.33902   0.
    21.14423   -16.77608   0.
    30.63308   -17.27998   0.
    13.52982   -17.14395   0.
    47.54931   -18.76199   0.
    47.53205   -16.68073   0.
     4.17445   -17.42523   0.
    -3.02579   -17.28531   0.
    45.16250   -19.70770   0.
    -0.67627   -18.71583   0.
    29.33253   -18.96733   0.
    -2.48929    -0.85575   0.
    48.62891    -0.91333   0.
    30.50730    -0.80594   0.
    15.50000    -0.86603   0.
    19.53494    -0.94375   0.
    26.42063    -0.77019   0.
    11.46960    -0.86361   0.
    34.50123    -0.68943   0.
     2.50000    -0.86603   0.
    43.50764    -0.99223   0.
    38.46043    -0.86365   0.
     7.41810    -0.97176   0.
    22.61630    -0.89069   0.
     0.15705   -13.52258   0.
    45.35649   -13.74688   0.
    13.39455   -13.69902   0.
    32.40776   -13.78238   0.
    24.95156   -13.69129   0.
    39.93779   -13.75336   0.
     6.06896   -13.71724   0.
    18.97731   -13.71595   0.
    -3.43787   -13.71599   0.
    36.12498   -13.51570   0.
    49.36614   -13.50854   0.
     9.74268   -13.70492   0.
    28.65361   -13.77892   0.
    -0.50992    -0.88205   0.
    46.48820    -0.86490   0.
    24.44119    -0.92547   0.
    28.60374    -0.93188   0.
    36.52987    -0.69923   0.
    40.48537    -0.83060   0.
     9.46413    -0.83198   0.
    13.45652    -0.83558   0.
     4.58898    -0.96815   0.
    32.46272    -0.90234   0.
    17.50000    -0.86603   0.
    48.82026    -7.00861   0.
    48.80812    -5.63395   0.
    47.62984    -6.26490   0.
    47.59759    -7.64103   0.
    46.43328    -6.89071   0.
    46.48822    -5.53091   0.
    45.30021    -6.13388   0.
    45.20656    -7.51006   0.
    44.05772    -6.72971   0.
    43.93943    -8.13487   0.
    42.78313    -7.32248   0.
    42.96201    -5.94398   0.
    41.64691    -6.51587   0.
    41.50340    -7.89902   0.
    40.36947    -7.08104   0.
    40.44220    -5.69928   0.
    39.21396    -6.24870   0.
    39.08512    -7.62457   0.
    37.97077    -6.78676   0.
    38.12081    -5.43438   0.
    36.86868    -5.94081   0.
    36.70031    -7.30286   0.
    35.58857    -6.44203   0.
    35.40844    -7.82247   0.
    34.31796    -6.94579   0.
    34.50693    -5.59132   0.
    33.25085    -6.07948   0.
    33.02353    -7.44433   0.
    31.95375    -6.55579   0.
    31.70841    -7.92017   0.
    30.63898    -7.01767   0.
    30.88878    -5.67502   0.
    29.59984    -6.12504   0.
    29.32657    -7.48382   0.
    28.27795    -6.56117   0.
    27.99036    -7.94320   0.
    26.94774    -6.99840   0.
    27.35727    -5.64329   0.
    26.00179    -6.05387   0.
    25.63736    -7.42499   0.
    24.61833    -6.51221   0.
    24.29101    -7.85272   0.
    23.25856    -6.93261   0.
    22.92765    -8.25622   0.
    21.89663    -7.30555   0.
    22.17660    -6.03794   0.
    20.84764    -6.37746   0.
    20.54052    -7.71199   0.
    19.50869    -6.73701   0.
    19.17884    -8.09568   0.
    18.13871    -7.11458   0.
    17.80805    -8.48245   0.
    16.78179    -7.48560   0.
    17.12054    -6.12893   0.
    15.78235    -6.49718   0.
    15.41420    -7.85907   0.
    14.41926    -6.85244   0.
    14.02900    -8.22353   0.
    13.04799    -7.19179   0.
    13.57013    -5.84010   0.
    12.15919    -5.97885   0.
    11.69256    -7.49367   0.
    10.72819    -6.46252   0.
    10.31408    -7.83218   0.
     9.33827    -6.80770   0.
     8.92915    -8.14476   0.
     7.97298    -7.11831   0.
     8.32050    -5.88121   0.
     6.98129    -6.14528   0.
     6.59986    -7.42984   0.
     5.54771    -6.15047   0.
     5.21294    -7.67084   0.
     4.17923    -6.58917   0.
     3.82999    -7.98470   0.
     2.84931    -6.92226   0.
     2.44919    -8.29434   0.
     1.49849    -7.22362   0.
     1.91663    -5.89557   0.
     0.60339    -6.17678   0.
     0.13411    -7.48016   0.
    -0.75375    -6.43164   0.
    -1.23720    -7.73000   0.
    -2.14669    -6.67442   0.
    -2.62213    -7.99784   0.
    -3.51330    -6.91377   0.
    -3.05291    -5.63368   0.
     6.21579    -5.03467   0.
    19.83670    -5.25106   0.
    10.99661    -5.18419   0.
    45.40970    -4.81000   0.
     1.05502    -4.90165   0.
     2.30743    -4.62834   0.
    16.14908    -5.18515   0.
    24.93379    -5.08540   0.
    -2.71102    -4.37404   0.
    29.84864    -4.79870   0.
    11.37655    -8.91429   0.
    36.53200    -8.72935   0.
    33.43182    -4.75881   0.
    34.66708    -4.29127   0.
    35.19450    -9.27358   0.
    25.31749    -8.89883   0.
     3.42128    -9.39969   0.
    15.05579    -9.27584   0.
    -1.67570    -9.08815   0.
    29.05454    -8.89161   0.
    20.28226    -9.18017   0.
     6.15763    -8.69185   0.
    45.13920    -8.94931   0.
    43.80438    -9.60638   0.
    46.53714    -4.22923   0.
    45.50110    -3.54086   0.
     1.95051    -9.71577   0.
     1.45940    -3.69310   0.
     2.67946    -3.43344   0.
     2.97629   -10.85964   0.
    -3.50216    -3.44838   0.
    33.69134    -3.49203   0.
     0.24670    -3.94169   0.
    -2.34913    -3.19427   0.
    17.41650    -4.83015   0.
    16.47450    -3.93385   0.
    17.68647    -3.58758   0.
    31.08810    -4.37446   0.
    30.08763    -3.55364   0.
    37.01332    -4.62142   0.
    38.27763    -4.12887   0.
    37.27461    -3.37097   0.
    31.23788    -3.07277   0.
    15.25671    -4.26332   0.
    28.91883    -3.97226   0.
    44.38452    -4.08837   0.
    36.35200   -10.21883   0.
    34.99495   -10.69369   0.
    34.82917    -3.00336   0.
     3.52557    -4.33878   0.
     3.87753    -3.16554   0.
    45.06593   -10.45916   0.
    43.66317   -11.15282   0.
     0.66117    -2.78680   0.
    46.60974    -3.01353   0.
    47.61730    -3.64824   0.
    42.42878   -10.25265   0.
    44.48321    -2.87372   0.
    43.39829    -3.38190   0.
    13.65085    -9.62173   0.
    14.67709   -10.73963   0.
    27.68778    -9.37572   0.
    28.76145   -10.25112   0.
    27.28881   -10.94746   0.
    15.58542    -3.06670   0.
    14.40980    -3.36945   0.
    46.38315    -9.76434   0.
    32.79117    -8.85561   0.
    31.45145    -9.37215   0.
[...]
POINT_DATA       614
CELL_DATA      1117
SCALARS Magnitude(ohm.m) double 1
LOOKUP_TABLE default
           174.05045            82.76880            93.47145           160.88726           166.62132            67.20538            44.69058            68.27504            47.96641            55.81678            42.52613            54.10309            42.57690           114.72383            35.93450           133.16073            75.94402           179.58540            38.36481            65.46947            54.65088            45.89559            35.88476            40.09450            41.98692            33.86433            34.29533            85.81356            50.64862            33.86947            62.06510            33.74696            33.98946           114.35103            95.40390           151.24536            86.30767            77.69024           179.28749           174.27434           164.68352            77.72353           177.00105            91.14143            49.98035            54.64431            54.70092           126.34612            52.02208            50.39631            43.03671            43.55519           176.23290            72.98831            62.32711            40.56407            41.21048            43.22361            37.42612            51.96115            45.77370            82.68785           124.49844            37.67930           143.98090            48.51887            36.53016           178.58272            36.69284            59.91324            37.17087            37.02227           107.77146            73.62040            88.53928            90.87311           177.78610           158.88215           176.00140           168.36322            48.42434            48.59188           147.13460           174.80460            44.37574           176.78881           240.40987           206.32878           207.03970            92.78353           235.78950           133.41107           239.14860           228.86442           239.62605           214.77590           250.13007           223.67196           240.68583           236.79761           130.62552           253.93140            34.93124           232.34710           262.59172           195.95577           185.99065           247.04843           222.50400           234.77372            33.57447            61.38613           169.41357           118.06280           185.66903            86.59099           137.06330            68.86325           237.91223            55.45632           237.01119           250.19234            50.08173           270.74611           228.92304           228.41607            80.75452           273.17626           276.21679            34.81871           247.50870           188.00258           268.48194            59.73009           263.82110            35.52472           268.95504           123.58470            86.96403           268.19931           137.50301           283.05845           244.49692           269.42829            88.33244           233.59187           258.81641            41.80558            54.17732           185.35017            93.26999           141.92375            23.23378           252.78876           259.03663            58.40366           180.30380           166.47191           247.24528           186.77190           240.39792           267.50298           251.53379            96.95999           247.62551            98.89327           181.22976            72.16215            18.27231           239.91560            32.53639           182.38839           254.78183           248.64532           156.98669           181.18960           100.65009           251.21359           232.69945           113.96716            19.04655           197.57669           225.71513            19.30887           228.09161            72.15392           142.29523           295.87424            49.95437            17.44128           237.80317           221.59475           182.88499           210.82701           132.77368           179.30039            19.64686            31.49452           236.99263            60.55616           185.66850           224.08140           217.59039           241.41621            29.18325           254.28829           158.73541           237.77496           224.55824           262.59241           237.40119            43.27875           237.88288           112.72238           282.10358           293.62558           123.64060           238.79571           164.38301           228.48588            38.40125           171.58401            21.67874           188.93333            21.33540           242.71277           175.80477           255.66191           113.18277           183.98222           279.59074           250.89600           154.83959           249.65048           264.29951           245.13753           249.15558           267.38204            48.91360           286.40341            84.21402           110.48283           207.71200           245.43145            22.83529           241.20283           228.87353           140.52957            23.57985           181.57283           260.47156           151.45916           165.96196           226.73545            30.17062            34.26542           264.99715           248.30767           158.37334            51.30332           248.83864           173.06069           213.84276           231.60544           234.45538           178.37244           179.49677            98.04196            30.19209           176.03870           247.05444           290.83818           180.53162           263.53148           274.16603           245.86855            70.75001           216.38937            26.11796            27.36128            26.35397           140.33669           100.61049           184.55836           247.56718           246.85316           233.14890            30.64270           244.07642           210.79584           134.16078            20.90952           287.37299            47.72320           301.34780           269.74131           208.47841           271.78834           208.40780           197.64322           173.47840           248.15526           159.69472           167.28299           109.94300            90.00586           107.06213            79.20748           223.32854            21.95797            22.44627           231.46496           248.17542           188.41412           267.42371           200.60096            20.63605           229.45317           283.08925           139.55504           130.55980            22.82599            89.52507           203.59426            93.17825           237.99370           108.17827           249.98183           288.02874           129.11911           246.76077           278.56222           256.30469           269.50330           180.87688           214.99969           230.25063            39.77676           199.76684           233.43167           248.14095           272.45110           235.17204           208.81986           208.54875            29.01609           168.54456           159.50161           169.85278           273.24748            36.00792           185.73051            91.69306           243.89110            26.33762           237.15477            75.18554           177.04358           261.92314           185.54348            62.10962           262.01886           126.38958            21.80289           243.85657           208.22028           281.17523            85.04248           243.67332            39.94715           222.97873           147.79438           119.75679           231.45795           247.81667           190.41247           191.15758           138.96337            76.21082           265.10408           128.46665            99.85596           280.95734            80.96208           155.16430            61.77658            50.88684            39.96432            21.11436           131.23951           168.68114            34.65544           243.58707           106.58579           133.03646           242.65773           201.64496            31.43239            26.62723           243.66911           158.34772            25.98705            26.30408           192.57336            40.79592           248.44445            56.65571            21.61855           119.94457            92.37894           195.84233           277.96090           240.71385           204.26705            96.26765           285.97520            66.20051           275.85495           253.80244           238.22114           220.67502           211.24199            20.78320           196.97375           212.54434           241.86236           251.09642           293.22301            28.67611            18.29173           149.38435            72.13512            28.33699            30.08727            90.47883           165.32065           181.56873            40.30898           131.04958            30.40736            45.02094           227.46687           190.44149           315.55804           252.03601           239.94536           275.74250            96.57773           234.34075           277.03148            71.49324           323.95955           245.38217            87.67353           247.33902            57.80837            77.92510            46.18890           176.62458           154.56146           253.23231           106.80439           176.86102            38.56440           172.41360           257.33457           245.93390            87.97616           148.07297            31.50043           239.80419            48.06811           128.44268           161.24595           197.16848           193.19378            64.39345            36.10256           297.97861            24.87866            29.11614           209.76195           150.18002            28.40032            28.55160           248.83779           266.58682            77.96025           274.30340           178.96126           191.00699           122.11535           141.06951           236.82821           217.23445           176.39036            94.30353           233.62577           104.05415           213.45611           246.98355            61.57738           250.22917           205.66943           194.73626            88.77411           253.37367           280.16415            76.81419           297.91678           265.43033           182.00081           179.82462           179.56585           305.77830           195.46761           187.40474           117.34905           197.32119           249.80251           221.25024            29.18444           231.31157           246.40349            34.13230           206.41650           209.83414           222.19903           213.74553           149.57889            55.18938           259.50791           148.09922           207.75346           145.09472           209.10443            29.76700           239.95269           262.69478           166.04209           261.72773           277.28458            92.85120           281.34782           231.68288           151.81721           126.06650           280.02837           271.00009            63.12356            91.29923           155.82556            92.82260           254.13576           194.87797           118.73561            74.57175            47.68645           198.60553            57.39113            54.34073            18.83516           291.41162           256.91789            23.41928            39.14275            40.76022           301.55151           271.10741            31.50899            33.66741           177.93211           174.59200            25.49188            26.70729           116.13436           272.40119            28.03619           183.71021           245.06325            27.11531           152.87576            56.75544            33.77667           146.41667           103.43239            41.99134            94.09973           239.20887           188.47574            20.80109           255.60413            32.66502            42.17072           199.99098            89.98641           284.43717            77.21699           227.24613           178.96596           252.65483           192.06692           179.34441           261.98370           186.67000           243.76916            96.58192           128.01055            62.80913           272.14884           184.19354            77.16510            17.70576           276.84108           192.09546            53.89596           242.65497            61.19833           220.83499            42.58641           106.58134            83.05505           221.43759           192.56087           208.37335           214.90884            15.71741           266.66984           203.23831            34.23974           248.95501           192.67573           195.14763           300.11108           166.66344           266.94417           171.79186           279.85723            28.28164           176.76997           221.68538           131.96705           259.01510           122.93448           271.02354           234.52657           267.21208           215.44615           293.39401           248.22965           316.14716           286.54259           222.95451           279.14344           343.75857           212.66211           265.57025           218.86554           218.63311           371.20854           178.07250           358.42323           273.65524           352.58302           275.41194           215.40730           262.62874           247.91602           237.57464           283.45864           301.78847           323.05677           236.13936           232.60802           289.14304            25.15712           280.23876            75.91122            57.00824            77.57188           119.50761            78.59055            30.99422            48.82745            46.00280           162.02266            73.02918            36.33807            67.88333            63.77393            29.88893           171.00401           107.75487           194.45193            85.61731            24.14800           110.33922           224.58265            37.62425           202.02081           134.57141            24.36561           174.73462            50.01246            40.13448           289.60082           210.30190            54.29794           184.70279           214.54804           275.75172           157.78964            22.23779           226.06385            96.51938           246.85903            17.78337            37.38257            22.40799            81.11797            53.05973            67.83592           278.99825           121.67681            36.29275           232.81677           114.90248            25.22470           244.29287            29.20631           200.05390           293.74987            19.99236           251.63848            23.89902            16.49723           200.64217            28.40118            21.28956           255.19355           280.17281            60.60185           108.25299           194.79740           200.51272            68.22704            99.43712           192.06617           139.39529            54.41482            81.95649            44.94634            65.70976            32.20989            87.81513            26.52776           199.48915            21.53258           278.11852            22.17820            20.81358            31.67752            18.93099            18.00445           186.02907            83.60982           210.03073            71.19698           204.15745            16.55305           163.77198           278.70583            53.97662           104.36389            33.83550            16.26065            26.08961            21.82062            18.72950           243.71877           238.33824            53.60721            74.08594            15.37267            45.79459            44.69396           285.83100           169.04524            48.70594           242.05517           174.22118           238.88635            49.95676           196.81550           150.68005            16.43749           219.00112           234.08673           270.49371           266.01814           255.37535           254.89180           270.78024           245.00804           254.61437           260.08973           266.08690           240.99610           297.91023           241.77225           282.24977           233.00286           237.40137           310.64241           250.95285           258.50260           297.54214            53.47071            15.48757            16.60941            18.79213           196.83814            85.33723           191.36089            54.22820           203.71077           170.88166           146.92810            88.73476           225.56799            45.29498            54.15945           285.16215            29.78615           184.09357            82.64584            72.97812            23.95374           143.98114           182.67329            20.02599           301.21168            40.72067            18.03710           245.04325           234.78819            23.13842           260.70408           278.09459           115.44389           246.02426           260.99151           241.65427            63.81432            24.97350           195.67952           240.94088            24.03317            20.40073           237.64132            17.36533           297.38972            22.83182            21.36170           191.39587           240.89656            83.81275           224.11014           182.54743           268.59196           246.98671           207.41944           248.83777           172.51457           244.81094           261.57401           192.91213            68.42471           211.28970            53.39932           241.75702            57.68019           285.42561            33.26329           238.91909            81.08659            64.04152           181.85679            16.24618            39.09891            55.46679           144.58745            27.77333            19.71431            16.99185           160.41794           269.85256            52.24644           253.44557           202.71172           182.97770            70.68609           277.71470           189.77182            77.21907           204.26798           252.59033           156.18254            88.49370           187.35956            74.53438            48.50141           264.35775            28.86130           249.49710           196.39689           180.06399            25.42372           240.31227           279.78839            20.22492           245.32175           132.97619           259.17277           239.24515           263.67143            37.36159           101.03769           292.21930            16.77017            18.85372           244.25294           257.09018           254.67240           232.13135            28.69111           250.43034            15.32551            67.68270           172.10092           243.57843            24.85765           264.85531           220.43158           275.19824           252.30440            24.44485            64.18860           164.16788            31.52598           229.26429            18.64564            16.79959            86.79412            19.42978            32.51426           189.48520           279.40542           279.79701           261.71032            16.03874           245.65332           282.39305            18.33581           273.01135           229.40757           261.23156            19.86125           220.31354           190.02505            98.37010           181.60883           240.49677           273.15576            26.31820           208.98425            15.99761            18.09222            78.99063            25.60269           252.35479           209.55302           107.86861           241.63424            17.08637           168.56891            62.27253           247.69994           250.58944           209.58958            44.19887            20.85129           260.56296           175.22521            24.43048