# vtk DataFile Version 3.0
Output from cR2
ASCII
DATASET UNSTRUCTURED_GRID
POINTS       1114 double
   -10.00000     0.00000   0.
     0.00000     0.00000   0.
     2.00000     0.00000   0.
     4.00000     0.00000   0.
     6.00000     0.00000   0.
     8.00000     0.00000   0.
    10.00000     0.00000   0.
    12.00000     0.00000   0.
    14.00000     0.00000   0.
    16.00000     0.00000   0.
    18.00000     0.00000   0.
    20.00000     0.00000   0.
    22.00000     0.00000   0.
    24.00000     0.00000   0.
    26.00000     0.00000   0.
    28.00000     0.00000   0.
    30.00000     0.00000   0.
    32.00000     0.00000   0.
    34.00000     0.00000   0.
    36.00000     0.00000   0.
    38.00000     0.00000   0.
    40.00000     0.00000   0.
    42.00000     0.00000   0.
    44.00000     0.00000   0.
    46.00000     0.00000   0.
    56.00000     0.00000   0.
   -10.00000   -15.33000   0.
    -0.57000   -15.33000   0.
     8.86000   -15.33000   0.
    18.29000   -15.33000   0.
    27.71000   -15.33000   0.
    37.14000   -15.33000   0.
    46.57000   -15.33000   0.
    56.00000   -15.33000   0.
  -240.00000     0.00000   0.
  -240.00000  -153.33000   0.
   286.00000     0.00000   0.
   286.00000  -153.33000   0.
    -9.00000     0.00000   0.
    -8.00000     0.00000   0.
    -7.00000     0.00000   0.
    -6.00000     0.00000   0.
    -5.00000     0.00000   0.
    -4.00000     0.00000   0.
    -3.00000     0.00000   0.
    -2.00000     0.00000   0.
    -1.00000     0.00000   0.
     1.00000     0.00000   0.
     3.00000     0.00000   0.
     5.00000     0.00000   0.
     7.00000     0.00000   0.
     9.00000     0.00000   0.
    11.00000     0.00000   0.
    13.00000     0.00000   0.
    15.00000     0.00000   0.
    17.00000     0.00000   0.
    19.00000     0.00000   0.
    21.00000     0.00000   0.
    23.00000     0.00000   0.
    25.00000     0.00000   0.
    27.00000     0.00000   0.
    29.00000     0.00000   0.
    31.00000     0.00000   0.
    33.00000     0.00000   0.
    35.00000     0.00000   0.
    37.00000     0.00000   0.
    39.00000     0.00000   0.
    41.00000     0.00000   0.
    43.00000     0.00000   0.
    45.00000     0.00000   0.
    47.00000     0.00000   0.
    48.00000     0.00000   0.
    49.00000     0.00000   0.
    50.00000     0.00000   0.
    51.00000     0.00000   0.
    52.00000     0.00000   0.
    53.00000     0.00000   0.
    54.00000     0.00000   0.
    55.00000     0.00000   0.
    -8.11400   -15.33000   0.
    -6.22800   -15.33000   0.
    -4.34200   -15.33000   0.
    -2.45600   -15.33000   0.
     1.31600   -15.33000   0.
     3.20200   -15.33000   0.
     5.08800   -15.33000   0.
     6.97400   -15.33000   0.
    10.74600   -15.33000   0.
    12.63200   -15.33000   0.
    14.51800   -15.33000   0.
    16.40400   -15.33000   0.
    20.17400   -15.33000   0.
    22.05800   -15.33000   0.
    23.94200   -15.33000   0.
    25.82600   -15.33000   0.
    29.59600   -15.33000   0.
    31.48200   -15.33000   0.
    33.36800   -15.33000   0.
    35.25400   -15.33000   0.
    39.02600   -15.33000   0.
    40.91200   -15.33000   0.
    42.79800   -15.33000   0.
    44.68400   -15.33000   0.
    48.45600   -15.33000   0.
    50.34200   -15.33000   0.
    52.22800   -15.33000   0.
    54.11400   -15.33000   0.
   -10.00000    -0.99708   0.
   -10.00000    -2.05901   0.
   -10.00000    -3.19001   0.
   -10.00000    -4.39457   0.
   -10.00000    -5.67748   0.
   -10.00000    -7.04383   0.
   -10.00000    -8.49905   0.
   -10.00000   -10.04892   0.
   -10.00000   -11.69959   0.
   -10.00000   -13.45762   0.
    56.00000    -0.99708   0.
    56.00000    -2.05901   0.
    56.00000    -3.19001   0.
    56.00000    -4.39457   0.
    56.00000    -5.67748   0.
    56.00000    -7.04383   0.
    56.00000    -8.49905   0.
    56.00000   -10.04892   0.
    56.00000   -11.69959   0.
    56.00000   -13.45762   0.
   -11.07314     0.00000   0.
   -12.39163     0.00000   0.
   -14.01155     0.00000   0.
   -16.00183     0.00000   0.
   -18.44714     0.00000   0.
   -21.45152     0.00000   0.
   -25.14276     0.00000   0.
   -29.67792     0.00000   0.
   -35.24993     0.00000   0.
   -42.09584     0.00000   0.
   -50.50691     0.00000   0.
   -60.84095     0.00000   0.
   -73.53762     0.00000   0.
   -89.13707     0.00000   0.
  -108.30296     0.00000   0.
  -131.85064     0.00000   0.
  -160.78193     0.00000   0.
  -196.32764     0.00000   0.
  -240.00000   -38.33250   0.
  -240.00000   -76.66500   0.
  -240.00000  -114.99750   0.
  -192.18182  -153.33000   0.
  -144.36364  -153.33000   0.
   -96.54545  -153.33000   0.
   -48.72727  -153.33000   0.
    -0.90909  -153.33000   0.
    46.90909  -153.33000   0.
    94.72727  -153.33000   0.
   142.54545  -153.33000   0.
   190.36364  -153.33000   0.
   238.18182  -153.33000   0.
   286.00000  -114.99750   0.
   286.00000   -76.66500   0.
   286.00000   -38.33250   0.
   242.32764     0.00000   0.
   206.78193     0.00000   0.
   177.85064     0.00000   0.
   154.30296     0.00000   0.
   135.13707     0.00000   0.
   119.53762     0.00000   0.
   106.84095     0.00000   0.
    96.50691     0.00000   0.
    88.09584     0.00000   0.
    81.24993     0.00000   0.
    75.67792     0.00000   0.
    71.14276     0.00000   0.
    67.45152     0.00000   0.
    64.44714     0.00000   0.
    62.00183     0.00000   0.
    60.01155     0.00000   0.
    58.39163     0.00000   0.
    57.07314     0.00000   0.
   -55.67393    -8.11687   0.
   102.28556    -9.27923   0.
    78.79609    -4.45141   0.
   -32.38552    -4.35143   0.
    57.49107   -12.57967   0.
   -12.06649   -12.70662   0.
    57.22177    -7.77144   0.
   -11.22177    -7.77144   0.
    23.00000   -16.96159   0.
    36.19700   -16.96332   0.
     9.80300   -16.96332   0.
     0.18440   -16.79514   0.
    -8.92655   -17.17913   0.
    45.68593   -17.01836   0.
    54.89378   -17.20285   0.
    65.94933    -2.35978   0.
   -20.15557    -2.15830   0.
   126.00797   -11.50124   0.
   166.16437   -20.57749   0.
   -80.96409   -12.45188   0.
  -119.69554   -19.97774   0.
   -11.01133    -3.79229   0.
    56.97411    -3.79022   0.
    61.00669    -1.56327   0.
   -14.92933    -1.39375   0.
   -29.87691  -104.55197   0.
    78.40147  -116.46749   0.
   224.71946   -27.45194   0.
  -178.71946   -27.45194   0.
  -120.45455  -111.91824   0.
   171.86855  -114.54125   0.
    57.76192    -0.97724   0.
   -11.72931    -0.94523   0.
  -206.53934   -93.27621   0.
   252.93831   -91.41848   0.
    24.06253  -114.40300   0.
    47.68652   -86.07672   0.
   113.46612  -114.90328   0.
   136.11597   -82.93205   0.
    92.23618   -84.75991   0.
   -64.55365  -113.77869   0.
   -50.91354   -88.01881   0.
   -12.50652   -78.21690   0.
   -33.34436   -57.60158   0.
   -92.05130   -79.52294   0.
   -27.33364    -3.71786   0.
   -29.25204    -8.78058   0.
   -35.05368    -9.56553   0.
   -30.83882   -14.21991   0.
   -37.54700   -16.21282   0.
   -24.88996   -12.41649   0.
   -26.45496   -18.67387   0.
   -20.22698   -16.64491   0.
   -21.68685   -23.44843   0.
   -28.96898   -25.51611   0.
   -11.63829   -17.22674   0.
    -9.80650   -19.87325   0.
    -5.40416   -17.25925   0.
   -22.49237   -31.64529   0.
   -19.67141   -11.36737   0.
   -31.98210   -34.30335   0.
   -13.12542   -19.56836   0.
   -11.29042   -23.42638   0.
    -6.48151   -22.72611   0.
    -8.78822   -28.80807   0.
   -22.20649    -8.38025   0.
   -18.28647    -7.76623   0.
   -15.73340   -10.09239   0.
   -16.54231   -13.54146   0.
   -15.33160    -6.89814   0.
   -42.32010    -9.56120   0.
   -45.82711   -18.74419   0.
   -57.20812   -18.69383   0.
   -49.94402   -29.58437   0.
   -64.03276   -32.91247   0.
   -50.37050   -44.95665   0.
   -70.39077   -48.97190   0.
   -17.05843    -4.90723   0.
   -14.60909    -4.63994   0.
   -25.51680   -42.40737   0.
   -12.93818    -6.09354   0.
   -13.30726    -8.24946   0.
   -12.21167   -14.95923   0.
   -13.52314   -36.92193   0.
   -16.80555   -50.41824   0.
    -5.00113   -45.06595   0.
   -11.79270    -9.60197   0.
   -82.75607   -31.02213   0.
    -5.36844   -57.96237   0.
     6.94900   -50.73035   0.
     9.44840   -37.78518   0.
    18.89504   -43.98140   0.
    21.46399   -35.34783   0.
    28.80063   -38.83051   0.
    15.41651   -16.97166   0.
    30.83558   -31.65697   0.
    37.58026   -35.47569   0.
    28.65300   -16.96246   0.
    38.27308   -45.54499   0.
    46.01912   -38.99553   0.
    46.83697   -31.72818   0.
    54.44951   -34.44375   0.
    56.58201   -44.41463   0.
    65.35739   -34.78620   0.
    12.48367   -29.85802   0.
    -2.62608   -27.23539   0.
    68.19727   -49.68305   0.
    78.63635   -40.34374   0.
    77.13601   -28.38769   0.
    89.17217   -30.61522   0.
    92.47409   -45.49516   0.
    22.53554   -25.57876   0.
   103.75042   -33.51771   0.
    20.71114   -60.15450   0.
    62.89270   -26.94109   0.
    68.18513   -17.52913   0.
    84.98670   -18.15346   0.
   109.53962   -51.42484   0.
   123.44260   -37.25318   0.
    57.91833   -56.77421   0.
    38.59058   -27.48297   0.
    31.54137   -23.42990   0.
    32.64133   -17.21687   0.
    73.41034    -4.51851   0.
    76.09203    -8.90146   0.
    70.74555    -9.12573   0.
    -1.28452   -22.52625   0.
     2.62815   -25.42811   0.
     2.26732   -31.78488   0.
     2.91002   -20.59937   0.
     6.32032   -22.51081   0.
     6.02113   -16.91260   0.
    82.60321    -9.57760   0.
  -146.96572   -24.23083   0.
  -160.66669   -51.38530   0.
  -127.64255   -44.63087   0.
  -192.30547   -56.59421   0.
  -143.26696   -77.49643   0.
  -170.68541  -114.10856   0.
   193.04385   -24.33078   0.
[...]
POINT_DATA      1114
CELL_DATA      2103
SCALARS Magnitude(ohm.m) double 1
LOOKUP_TABLE default
           127.61576           165.39702            96.54520           126.64362           131.34357           132.55910           147.56139           149.32291           138.53520           121.32375           174.05045           124.99869           132.24441           129.66700           131.90633           129.13033            82.76880           142.93383           151.17192           129.67146           129.61008           134.52632           123.63358           129.31240           123.86065           144.87366           140.09116           156.08584           139.96694           175.63669           124.07331           128.45705           158.35486           133.03767           123.70154           151.25318           127.69940           129.99969           130.65895           135.50765           135.17707           115.15119           131.72239           130.48265           112.12046           132.78934           129.43744           137.84097           130.53521           170.48180           144.63499           125.29059           147.16248           174.06051           150.63782           144.39778           124.02926           148.70096           174.47715            84.51423           130.07114           129.44181           155.53120           132.75520           151.69928           124.61620           130.98371           110.15331           135.92371           156.34326           129.28501           134.19985           132.61891           129.69292           127.01603            64.37224           130.66935           133.02951           130.20331           151.50253            66.43812           126.94499           126.97400            93.47145           128.80955           123.63861           132.16821           102.72664           125.33788           124.59124           131.02588           138.75167            59.53697           126.86223           185.71094           110.52538           125.05737            69.16172           131.33588           130.21806           185.42515           156.28709           124.00734           143.99217           128.79390           130.22060           135.20520           125.66307           176.80142           122.68286           140.15506           109.38846           124.71530            81.51971           142.12716           143.40313           138.01024           127.09503           143.99808           131.80652           127.24585           103.03920           132.88341           132.96005           125.97457           131.68439           156.35422           129.65178           127.44268           132.35544           124.61466           147.25529            89.88060           160.88726           131.25903           126.74608           126.40521           134.28471           131.25856           131.01367           146.48634           128.43090           127.91394           130.58152           136.78210           123.92403           145.40321           126.94237           181.13389           114.52714           144.89030           124.73420           137.05962           130.77703           125.50171           129.35761           128.31675           128.18104           132.83360           133.76834           130.84390            84.88671           126.44086           143.64919           142.93581           130.87178           140.10486           124.82920           166.62132           145.70809           123.18829           118.39991           129.18935           134.94631           146.80041           126.74403           130.94571           130.84216           133.43971           130.48930           125.56634           130.79914           180.88592           134.96868           134.11288           128.51496           126.61479           169.40546           132.48629           168.11923           111.66660           126.82730           135.31111           148.11348           133.35265           127.90243           131.59140           170.69185           128.01061           129.83409            72.59455           128.97433           123.58061           123.87332           129.42500           130.04424           133.33190           132.14075           138.94158           124.77252           146.42539           144.97067           131.49275           170.79807           133.85930           129.19930           127.48012           124.28917           148.48708           132.43719           166.37046           126.39238           128.97074            91.51870           185.27261           130.25075           152.36422           120.49065           127.48962           124.76315           119.82709           139.44205           171.17467           154.99057           127.89729           156.90047           127.93897           125.57357           131.72406           131.80361           127.20160           130.50002           130.02709           129.59378           130.60262           133.63837           176.27755            71.82055           161.38521           128.36833           139.29910           166.05469           131.83192           137.46253           138.69329           180.88798           112.26525           124.61335           130.05592           138.59652           141.63277           140.01484           101.25767           129.32987           112.70286           144.57797           125.17939            63.50256           125.89163           110.51850           180.75899           132.20959           129.25931           161.80681           134.37616           131.28938           125.95248           156.24961           128.89201           128.13347           135.30584           105.81071           124.09580           125.18774           124.26815           125.47660           126.15508           130.07177           135.93992           142.24565           127.60311           130.61360           128.27340           128.35839           138.02932           128.40639           125.86066           131.54776           132.80743           133.96618           171.41514           129.94447           128.72115           175.53128           114.08961           128.59075           128.57897           162.43991           129.06147           124.34994           128.13809           142.13897           133.28150           133.57753           130.52411           164.66061           122.00342           134.33736           166.26005           129.36619            58.69674           131.46150           124.69267           128.56424           128.60901            91.86822           126.66148           136.11322           134.25952           124.20435           125.76427           143.82552           129.54222           147.58096           133.26954           130.14002           137.76665           129.59928           132.53042           128.31944           137.16865           183.67889           143.97518           190.50231           125.97784           128.00135           132.95700           129.59675           127.21645           151.16068           145.08504           128.54860           133.89926           121.96668           150.17107           127.50267           131.88844           162.15163           139.52657            87.83648           173.79709            70.20705            67.20538           132.92624           164.00759           118.46004           128.08797           128.99112           141.41350           128.90134            44.69058           133.40108            68.27504           128.08409           194.72025           134.12600           127.17445           160.72121           133.78063           130.79360            67.23017           139.84662           128.20670            80.60629           139.81874           159.50340           193.00315           132.24663           164.17634           156.67452           105.12462           129.95212           133.84520            48.54726            64.06192            64.63185           196.33979           133.30440           130.37691           118.34701           128.31548           135.25125           129.65394           126.10565           139.76128           151.77247           127.50525           133.50140           130.31348           189.32290           131.35293           128.43953           132.84971           128.10550           142.53687            93.33475           125.74828            47.96641            55.81678           129.53089           169.65366           128.28345            42.52613           129.81350            54.10309           127.97509           185.22976           125.96669           129.54236           128.38729           123.06976            42.57690           134.08304           131.05477           130.52135           127.60314           190.35812           145.96124           133.17955           129.96284           124.89633           127.67832           129.26239           137.19801           129.39601           178.25286           124.25031           125.98763           112.39894           126.12894           130.52465           155.98765           123.24301           167.20785           128.37032           114.72383           152.09016           146.08205           117.16612           155.43406           155.48869           129.77225           115.61984            35.93450           133.16073            75.94402           179.58540            38.36481            65.46947           130.85142           118.96214            54.65088           123.42303            45.89559            35.88476            40.09450            41.98692            33.86433           129.07348           149.50722            34.29533            85.81356           133.84532           130.87204            88.14289           168.44873            50.64862           137.45839            33.86947            62.06510            33.74696            33.98946           114.35103           134.37165           129.49656            95.40390           151.24536            86.30767            77.69024           128.39137           138.93699            95.61215           179.28749           130.06111           132.99990           130.00161           127.22333           174.27434           128.14531           139.00770           136.63880           148.56895           164.68352            77.72353           141.33933           154.42898           105.21664            75.30800           133.20930           121.78640           124.82260           137.91500            92.45962           177.00105           112.20840           106.16657           130.31966           131.82877           129.49001           129.42910           126.93604           126.94805           125.37965           130.99826           146.84365           149.71663           161.26055           132.17468           124.90612           125.44783            57.66975           129.86626           145.67540           114.03854            91.14143            94.54031           136.63935           129.02667           133.52498           125.90762           125.55680           133.48346           129.02710           127.48325            49.98035            54.64431            54.70092            51.42262           172.95933            96.30334           140.10336           126.09893           144.17261           128.54301           126.23789           131.00974           134.03024           129.55315           129.72200           123.79293           116.49231           161.96973           145.63311           126.65435           136.50350           127.32693            84.68305           164.40655           122.26595           120.89194           138.31756           143.15379            80.83663           130.32975           126.34612           133.28286           124.59652            52.02208            50.39631            43.03671           129.26899           128.79120            43.55519           125.28265           117.21766           130.20940           121.49905           139.98924           153.14751           130.32342           123.59636           160.62213           126.19858           167.38805           126.43058           123.90353           126.43998            88.02547           139.65741           114.51049           127.13335           127.53542           132.04551            87.95660           121.97250           130.25193            90.55242           131.08164           176.23290           129.25318            48.98432           145.43204           110.51317           133.54089           127.28565           151.27880           131.85570           132.04007           128.11693           126.04665           123.43448           133.29453           130.14102           147.24446           145.88504           138.67811           135.54035           160.00999            72.75148            69.28700           124.40541           131.88888           127.10118           120.05625           125.21947           132.24063            59.45206           161.11363           133.69802           129.78251           129.16883           130.75943           141.89681           155.44991            72.98831           120.02481            62.32711            40.56407            41.21048            43.22361           152.36198            37.42612            51.96115           125.06365           127.72719            45.77370           128.96682            82.68785           124.49844            37.67930           143.98090            48.51887            36.53016           128.12320           109.04988           178.58272            36.69284           129.94184            59.91324            79.36997           132.42813           130.94112           133.93059            37.17087            37.02227           107.77146            73.62040            88.53928            90.87311           121.94300           140.62046           119.18109           105.67110           143.05215           113.95892           119.69114           177.78610           158.88215           140.98895           176.00140           159.01129           135.36313           150.26875           133.01610           193.56464           100.53792           168.36322           131.16092           134.15990           124.42674           158.57003           118.95258           124.70705            48.42434            48.59188           124.37830           109.49613           169.23609           162.02632           108.82964           148.40051           131.78826           189.50434           124.51619           147.13460           127.48509           124.54171           128.94884           154.81763           107.02492           124.04195            80.91310           137.79021           146.07960           129.82554           100.91489           174.80460           135.25066           140.90152           128.16248           127.42347           117.76466           162.45480           146.28445           151.93176           150.39443            44.37574           142.65252           132.43824           123.90383           101.58590           148.71619           163.82699           155.88298           126.84311           169.82159           140.43058           123.87132           130.46900           129.00742           125.14061           130.03441           124.15069           127.38327           129.95091           140.96758           129.53054           124.94119           131.06569           104.90721           127.80820           152.11059           126.52317           106.29828           130.48782           139.02686           132.50543           127.71873           142.38476           136.29727           126.46200           113.04001           176.78881            97.35908           240.40987           206.32878           207.03970            92.78353           235.78950           133.41107           239.14860           228.86442           141.19141           239.62605           214.77590           250.13007           223.67196           240.68583           236.79761           130.62552           253.93140            34.93124           232.34710           262.59172           144.03695           195.95577           185.99065           247.04843           223.02158           101.40800           156.17226           222.50400           209.92047           159.88334           234.77372            33.57447           178.69737            61.38613           169.41357           118.06280           185.66903            86.59099           157.85619           137.06330            68.86325           237.91223           207.51838            55.45632           237.01119           250.19234            50.08173           270.74611           155.60965           228.92304           228.41607            80.75452           273.17626           276.21679            34.81871           247.50870           194.43628           152.41435           188.00258           264.57427           268.48194            59.73009           263.82110            35.52472           268.95504           123.58470           204.78023            86.96403           268.19931           137.50301           283.05845           154.24839           244.49692           269.42829           186.00206            88.33244           123.33973           233.59187           258.81641            41.80558            54.17732           185.35017           175.93713            93.26999           141.92375            23.23378           252.78876           259.03663            58.40366           232.78629           180.30380           166.47191           216.96892           283.08588           247.24528           146.87134           186.77190           240.39792           267.50298           101.92715           180.84201           140.51513           122.71254           251.53379            96.95999           247.62551            98.89327           153.44969           181.22976           147.08760           189.16379           152.36130           104.64643           183.23963            72.16215            18.27231           239.91560            32.53639           182.38839           254.78183           248.64532           156.98669           181.18960           264.52161           100.65009           251.21359           232.69945           113.96716            19.04655           197.57669           225.71513            19.30887           228.09161            72.15392           142.29523           295.87424            49.95437            17.44128           237.80317           153.45298           221.59475           182.88499           210.82701           132.77368           148.54696           251.59432           179.30039           157.16057            19.64686            31.49452           162.10247           236.99263           113.61345            60.55616           185.66850           224.08140           217.59039           241.41621            29.18325           254.28829           158.73541           237.77496           224.55824           262.59241           237.40119           106.54019            43.27875           237.88288           112.72238           282.10358           293.62558           123.64060           170.50979           170.04509           238.79571           164.38301           228.48588            38.40125           171.58401            21.67874           188.93333           144.59865            21.33540           242.71277           175.80477           255.66191           113.18277           158.51776           183.98222           279.59074           250.89600           154.83959           249.65048           166.69678           154.05500           264.29951           245.13753           249.15558           164.43329           267.38204            48.91360           105.35619           286.40341            84.21402           110.48283           207.71200           245.43145            22.83529           241.20283           169.40085           228.87353