# vtk DataFile Version 3.0
Output from cR2
ASCII
DATASET UNSTRUCTURED_GRID
POINTS       6201 double
   -98.02000     0.00000   0.
   -98.02000    -0.14000   0.
   -98.02000    -0.28000   0.
   -98.02000    -0.41000   0.
   -98.02000    -0.55000   0.
   -98.02000    -0.69000   0.
   -98.02000    -0.83000   0.
   -98.02000    -0.96000   0.
   -98.02000    -1.10000   0.
   -98.02000    -1.24000   0.
   -98.02000    -1.38000   0.
   -98.02000    -1.51000   0.
   -98.02000    -1.65000   0.
   -98.02000    -1.73000   0.
   -98.02000    -1.80000   0.
   -98.02000    -1.88000   0.
   -98.02000    -1.95000   0.
   -98.02000    -2.03000   0.
   -98.02000    -2.11000   0.
   -98.02000    -2.18000   0.
   -98.02000    -2.26000   0.
   -98.02000    -2.34000   0.
   -98.02000    -2.41000   0.
   -98.02000    -2.49000   0.
   -98.02000    -2.56000   0.
   -98.02000    -2.64000   0.
   -98.02000    -2.72000   0.
   -98.02000    -2.79000   0.
   -98.02000    -2.87000   0.
   -98.02000    -2.95000   0.
   -98.02000    -3.02000   0.
   -98.02000    -3.10000   0.
   -98.02000    -3.17000   0.
   -98.02000    -3.25000   0.
   -98.02000    -3.33000   0.
   -98.02000    -3.40000   0.
   -98.02000    -3.48000   0.
   -98.02000    -3.55000   0.
   -98.02000    -3.63000   0.
   -98.02000    -3.71000   0.
   -98.02000    -3.78000   0.
   -98.02000    -3.86000   0.
   -98.02000    -3.94000   0.
   -98.02000    -4.01000   0.
   -98.02000    -4.09000   0.
   -98.02000    -4.16000   0.
   -98.02000    -4.24000   0.
   -98.02000    -4.32000   0.
   -98.02000    -4.39000   0.
   -98.02000    -4.47000   0.
   -98.02000    -4.55000   0.
   -98.02000    -4.62000   0.
   -98.02000    -4.70000   0.
   -98.02000    -4.77000   0.
   -98.02000    -4.85000   0.
   -98.02000    -4.93000   0.
   -98.02000    -5.00000   0.
   -98.02000    -5.08000   0.
   -98.02000    -5.16000   0.
   -98.02000    -5.23000   0.
   -98.02000    -5.31000   0.
   -98.02000    -5.38000   0.
   -98.02000    -5.46000   0.
   -98.02000    -5.54000   0.
   -98.02000    -5.61000   0.
   -98.02000    -5.69000   0.
   -98.02000    -5.76000   0.
   -98.02000    -5.84000   0.
   -98.02000    -5.92000   0.
   -98.02000    -5.99000   0.
   -98.02000    -6.07000   0.
   -98.02000    -6.15000   0.
   -98.02000    -6.22000   0.
   -98.02000    -6.30000   0.
   -98.02000    -6.37000   0.
   -98.02000    -6.45000   0.
   -98.02000    -6.53000   0.
   -98.02000    -6.60000   0.
   -98.02000    -6.68000   0.
   -98.02000    -6.76000   0.
   -98.02000    -6.83000   0.
   -98.02000    -6.91000   0.
   -98.02000    -6.98000   0.
   -98.02000    -7.06000   0.
   -98.02000    -7.14000   0.
   -98.02000    -7.21000   0.
   -98.02000    -7.29000   0.
   -98.02000    -7.36000   0.
   -98.02000    -7.44000   0.
   -98.02000    -7.52000   0.
   -98.02000    -7.59000   0.
   -98.02000    -7.67000   0.
   -98.02000    -7.75000   0.
   -98.02000    -7.82000   0.
   -98.02000    -7.90000   0.
   -98.02000    -7.97000   0.
   -98.02000    -8.05000   0.
   -98.02000    -8.13000   0.
   -98.02000    -8.20000   0.
   -98.02000    -8.28000   0.
   -98.02000    -8.36000   0.
   -98.02000    -8.43000   0.
   -98.02000    -8.51000   0.
   -98.02000    -8.58000   0.
   -98.02000    -8.66000   0.
   -98.02000   -10.62000   0.
   -98.02000   -13.02000   0.
   -98.02000   -15.96000   0.
   -98.02000   -19.57000   0.
   -98.02000   -24.00000   0.
   -98.02000   -29.43000   0.
   -98.02000   -36.08000   0.
   -98.02000   -44.24000   0.
   -98.02000   -54.25000   0.
   -98.02000   -66.52000   0.
   -98.02000   -81.56000   0.
   -98.02000  -100.00000   0.
   -68.83000     0.00000   0.
   -68.83000    -0.14000   0.
   -68.83000    -0.28000   0.
   -68.83000    -0.41000   0.
   -68.83000    -0.55000   0.
   -68.83000    -0.69000   0.
   -68.83000    -0.83000   0.
   -68.83000    -0.96000   0.
   -68.83000    -1.10000   0.
   -68.83000    -1.24000   0.
   -68.83000    -1.38000   0.
   -68.83000    -1.51000   0.
   -68.83000    -1.65000   0.
   -68.83000    -1.73000   0.
   -68.83000    -1.80000   0.
   -68.83000    -1.88000   0.
   -68.83000    -1.95000   0.
   -68.83000    -2.03000   0.
   -68.83000    -2.11000   0.
   -68.83000    -2.18000   0.
   -68.83000    -2.26000   0.
   -68.83000    -2.34000   0.
   -68.83000    -2.41000   0.
   -68.83000    -2.49000   0.
   -68.83000    -2.56000   0.
   -68.83000    -2.64000   0.
   -68.83000    -2.72000   0.
   -68.83000    -2.79000   0.
   -68.83000    -2.87000   0.
   -68.83000    -2.95000   0.
   -68.83000    -3.02000   0.
   -68.83000    -3.10000   0.
   -68.83000    -3.17000   0.
   -68.83000    -3.25000   0.
   -68.83000    -3.33000   0.
   -68.83000    -3.40000   0.
   -68.83000    -3.48000   0.
   -68.83000    -3.55000   0.
   -68.83000    -3.63000   0.
   -68.83000    -3.71000   0.
   -68.83000    -3.78000   0.
   -68.83000    -3.86000   0.
   -68.83000    -3.94000   0.
   -68.83000    -4.01000   0.
   -68.83000    -4.09000   0.
   -68.83000    -4.16000   0.
   -68.83000    -4.24000   0.
   -68.83000    -4.32000   0.
   -68.83000    -4.39000   0.
   -68.83000    -4.47000   0.
   -68.83000    -4.55000   0.
   -68.83000    -4.62000   0.
   -68.83000    -4.70000   0.
   -68.83000    -4.77000   0.
   -68.83000    -4.85000   0.
   -68.83000    -4.93000   0.
   -68.83000    -5.00000   0.
   -68.83000    -5.08000   0.
   -68.83000    -5.16000   0.
   -68.83000    -5.23000   0.
   -68.83000    -5.31000   0.
   -68.83000    -5.38000   0.
   -68.83000    -5.46000   0.
   -68.83000    -5.54000   0.
   -68.83000    -5.61000   0.
   -68.83000    -5.69000   0.
   -68.83000    -5.76000   0.
   -68.83000    -5.84000   0.
   -68.83000    -5.92000   0.
   -68.83000    -5.99000   0.
   -68.83000    -6.07000   0.
   -68.83000    -6.15000   0.
   -68.83000    -6.22000   0.
   -68.83000    -6.30000   0.
   -68.83000    -6.37000   0.
   -68.83000    -6.45000   0.
   -68.83000    -6.53000   0.
   -68.83000    -6.60000   0.
   -68.83000    -6.68000   0.
   -68.83000    -6.76000   0.
   -68.83000    -6.83000   0.
   -68.83000    -6.91000   0.
   -68.83000    -6.98000   0.
   -68.83000    -7.06000   0.
   -68.83000    -7.14000   0.
   -68.83000    -7.21000   0.
   -68.83000    -7.29000   0.
   -68.83000    -7.36000   0.
   -68.83000    -7.44000   0.
   -68.83000    -7.52000   0.
   -68.83000    -7.59000   0.
   -68.83000    -7.67000   0.
   -68.83000    -7.75000   0.
   -68.83000    -7.82000   0.
   -68.83000    -7.90000   0.
   -68.83000    -7.97000   0.
   -68.83000    -8.05000   0.
   -68.83000    -8.13000   0.
   -68.83000    -8.20000   0.
   -68.83000    -8.28000   0.
   -68.83000    -8.36000   0.
   -68.83000    -8.43000   0.
   -68.83000    -8.51000   0.
   -68.83000    -8.58000   0.
   -68.83000    -8.66000   0.
   -68.83000   -10.62000   0.
   -68.83000   -13.02000   0.
   -68.83000   -15.96000   0.
   -68.83000   -19.57000   0.
   -68.83000   -24.00000   0.
   -68.83000   -29.43000   0.
   -68.83000   -36.08000   0.
   -68.83000   -44.24000   0.
   -68.83000   -54.25000   0.
   -68.83000   -66.52000   0.
   -68.83000   -81.56000   0.
   -68.83000  -100.00000   0.
   -48.16000     0.00000   0.
   -48.16000    -0.14000   0.
   -48.16000    -0.28000   0.
   -48.16000    -0.41000   0.
   -48.16000    -0.55000   0.
   -48.16000    -0.69000   0.
   -48.16000    -0.83000   0.
   -48.16000    -0.96000   0.
   -48.16000    -1.10000   0.
   -48.16000    -1.24000   0.
   -48.16000    -1.38000   0.
   -48.16000    -1.51000   0.
   -48.16000    -1.65000   0.
   -48.16000    -1.73000   0.
   -48.16000    -1.80000   0.
   -48.16000    -1.88000   0.
   -48.16000    -1.95000   0.
   -48.16000    -2.03000   0.
   -48.16000    -2.11000   0.
   -48.16000    -2.18000   0.
   -48.16000    -2.26000   0.
   -48.16000    -2.34000   0.
   -48.16000    -2.41000   0.
   -48.16000    -2.49000   0.
   -48.16000    -2.56000   0.
   -48.16000    -2.64000   0.
   -48.16000    -2.72000   0.
   -48.16000    -2.79000   0.
   -48.16000    -2.87000   0.
   -48.16000    -2.95000   0.
   -48.16000    -3.02000   0.
   -48.16000    -3.10000   0.
   -48.16000    -3.17000   0.
   -48.16000    -3.25000   0.
   -48.16000    -3.33000   0.
   -48.16000    -3.40000   0.
   -48.16000    -3.48000   0.
   -48.16000    -3.55000   0.
   -48.16000    -3.63000   0.
   -48.16000    -3.71000   0.
   -48.16000    -3.78000   0.
   -48.16000    -3.86000   0.
   -48.16000    -3.94000   0.
   -48.16000    -4.01000   0.
   -48.16000    -4.09000   0.
   -48.16000    -4.16000   0.
   -48.16000    -4.24000   0.
   -48.16000    -4.32000   0.
   -48.16000    -4.39000   0.
   -48.16000    -4.47000   0.
   -48.16000    -4.55000   0.
   -48.16000    -4.62000   0.
   -48.16000    -4.70000   0.
   -48.16000    -4.77000   0.
   -48.16000    -4.85000   0.
   -48.16000    -4.93000   0.
   -48.16000    -5.00000   0.
   -48.16000    -5.08000   0.
   -48.16000    -5.16000   0.
   -48.16000    -5.23000   0.
   -48.16000    -5.31000   0.
   -48.16000    -5.38000   0.
   -48.16000    -5.46000   0.
   -48.16000    -5.54000   0.
   -48.16000    -5.61000   0.
   -48.16000    -5.69000   0.
   -48.16000    -5.76000   0.
   -48.16000    -5.84000   0.
   -48.16000    -5.92000   0.
   -48.16000    -5.99000   0.
   -48.16000    -6.07000   0.
   -48.16000    -6.15000   0.
   -48.16000    -6.22000   0.
   -48.16000    -6.30000   0.
   -48.16000    -6.37000   0.
   -48.16000    -6.45000   0.
   -48.16000    -6.53000   0.
   -48.16000    -6.60000   0.
   -48.16000    -6.68000   0.
   -48.16000    -6.76000   0.
   -48.16000    -6.83000   0.
   -48.16000    -6.91000   0.
   -48.16000    -6.98000   0.
   -48.16000    -7.06000   0.
   -48.16000    -7.14000   0.
[...]
POINT_DATA      6201
CELL_DATA      6032
SCALARS Magnitude(ohm.m) double 1
LOOKUP_TABLE default
            20.00000            20.00000            20.00000            20.00000            20.00000            20.00000            20.00000            20.00000            20.00000            20.00000            20.00000            20.00000            20.00000            20.00000            20.00000            20.00000            20.00000            20.00000            20.00000            20.00000            20.00000            20.00000            20.00000            20.00000            20.00000            20.00000            20.00000            20.00000            20.00000            20.00000            20.00000            20.00000            20.00000            20.00000            20.00000            20.00000            20.00000            20.00000            20.00000            20.00000            20.00000            20.00000            20.00000            20.00000            20.00000            20.00000            20.00000            20.00000            20.00000            20.00000            20.00000            20.00000            20.00000            20.00000            20.00000            20.00000            20.00000            20.00000            20.00000            20.00000            20.00000            20.00000            20.00000            20.00000            20.00000            20.00000            20.00000            20.00000            20.00000            20.00000            20.00000            20.00000            20.00000            20.00000            20.00000            20.00000            20.00000            20.00000            20.00000            20.00000            20.00000            20.00000            20.00000            20.00000            20.00000            20.00000            20.00000            20.00000            20.00000            20.00000            20.00000            20.00000            20.00000            20.00000            20.00000            20.00000            20.00000            20.00000            20.00000            20.00000            20.00000            20.00000            20.00000            20.00000            20.00000            20.00000            20.00000            20.00000            20.00000            20.00000            20.00000            20.00000            20.00000            20.00000            20.00000            20.00000            20.00000            20.00000            20.00000            20.00000            20.00000            20.00000            20.00000            20.00000            20.00000            20.00000            20.00000            20.00000            20.00000            20.00000            20.00000            20.00000            20.00000            20.00000            20.00000            20.00000            20.00000            20.00000            20.00000            20.00000            20.00000            20.00000            20.00000            20.00000            20.00000            20.00000            20.00000            20.00000            20.00000            20.00000            20.00000            20.00000            20.00000            20.00000            20.00000            20.00000            20.00000            20.00000            20.00000            20.00000            20.00000            20.00000            20.00000            20.00000            20.00000            20.00000            20.00000            20.00000            20.00000            20.00000            20.00000            20.00000            20.00000            20.00000            20.00000            20.00000            20.00000            20.00000            20.00000            20.00000            20.00000            20.00000            20.00000            20.00000            20.00000            20.00000            20.00000            20.00000            20.00000            20.00000            20.00000            20.00000            20.00000            20.00000            20.00000            20.00000            20.00000            20.00000            20.00000            20.00000            20.00000            20.00000            20.00000            20.00000            20.00000            20.00000            20.00000            20.00000            20.00000            20.00000            20.00000            20.00000            20.00000            20.00000            20.00000            20.00000            20.00000            20.00000            20.00000            20.00000            20.00000            20.00000            20.00000            20.00000            20.00000            20.00000            20.00000            20.00000            20.00000            20.00000            20.00000            20.00000            20.00000            20.00000            20.00000            20.00000            20.00000            20.00000            20.00000            20.00000            20.00000            20.00000            20.00000            20.00000            20.00000            20.00000            20.00000            20.00000            20.00000            20.00000            20.00000            20.00000            20.00000            20.00000            20.00000            20.00000            20.00000            20.00000            20.00000            20.00000            20.00000            20.00000            20.00000            20.00000            20.00000            20.00000            20.00000            20.00000            20.00000            20.00000            20.00000            20.00000            20.00000            20.00000            20.00000            20.00000            20.00000            20.00000            20.00000            20.00000            20.00000            20.00000            20.00000            20.00000            20.00000            20.00000            20.00000            20.00000            20.00000            20.00000            20.00000            20.00000            20.00000            20.00000            20.00000            20.00000            20.00000            20.00000            20.00000            20.00000            20.00000            20.00000            20.00000            20.00000            20.00000            20.00000            20.00000            20.00000            20.00000            20.00000            20.00000            20.00000            20.00000            20.00000            20.00000            20.00000            20.00000            20.00000            20.00000            20.00000            20.00000            20.00000            20.00000            20.00000            20.00000            20.00000            20.00000            20.00000            20.00000            20.00000            20.00000            20.00000            20.00000            20.00000            20.00000            20.00000            20.00000            20.00000            20.00000            20.00000            20.00000            20.00000            20.00000            20.00000            20.00000            20.00000            20.00000            20.00000            20.00000            20.00000            20.00000            20.00000            20.00000            20.00000            20.00000            20.00000            20.00000            20.00000            20.00000            20.00000            20.00000            20.00000            20.00000            20.00000            20.00000            20.00000            20.00000            20.00000            20.00000            20.00000            20.00000            20.00000            20.00000            20.00000            20.00000            20.00000            20.00000            20.00000            20.00000            20.00000            20.00000            20.00000            20.00000            20.00000            20.00000            20.00000            20.00000            20.00000            20.00000            20.00000            20.00000            20.00000            20.00000            20.00000            20.00000            20.00000            20.00000            20.00000            20.00000            20.00000            20.00000            20.00000            20.00000            20.00000            20.00000            20.00000            20.00000            20.00000            20.00000            20.00000            20.00000            20.00000            20.00000            20.00000            20.00000            20.00000            20.00000            20.00000            20.00000            20.00000            20.00000            20.00000            20.00000            20.00000            20.00000            20.00000            20.00000            20.00000            20.00000            20.00000            20.00000            20.00000            20.00000            20.00000            20.00000            20.00000            20.00000            20.00000            20.00000            20.00000            20.00000            20.00000            20.00000            20.00000            20.00000            20.00000            20.00000            20.00000            20.00000            20.00000            20.00000            20.00000            20.00000            20.00000            20.00000            20.00000            20.00000            20.00000            20.00000            20.00000            20.00000            20.00000            20.00000            20.00000            20.00000            20.00000            20.00000            20.00000            20.00000            20.00000            20.00000            20.00000            20.00000            20.00000            20.00000            20.00000            20.00000            20.00000            20.00000            20.00000            20.00000            20.00000            20.00000            20.00000            20.00000            20.00000            20.00000            20.00000            20.00000            20.00000            20.00000            20.00000            20.00000            20.00000            20.00000            20.00000            20.00000            20.00000            20.00000            20.00000            20.00000            20.00000            20.00000            20.00000            20.00000            20.00000            20.00000            20.00000            20.00000            20.00000            20.00000            20.00000            20.00000            20.00000            20.00000            20.00000            20.00000            20.00000            20.00000            20.00000            20.00000            20.00000            20.00000            20.00000            20.00000            20.00000            20.00000            20.00000            20.00000            20.00000            20.00000            20.00000            20.00000            20.00000            20.00000            20.00000            20.00000            20.00000            20.00000            20.00000            20.00000            20.00000            20.00000            20.00000            20.00000            20.00000            20.00000            20.00000            20.00000            20.00000            20.00000            20.00000            20.00000            20.00000            20.00000            20.00000            20.00000            20.00000            20.00000            20.00000            20.00000            20.00000            20.00000            20.00000            20.00000            20.00000            20.00000            20.00000            20.00000            20.00000            20.00000            20.00000            20.00000            20.00000            20.00000            20.00000            20.00000            20.00000            20.00000            20.00000            20.00000            20.00000            20.00000            20.00000            20.00000            20.00000            20.00000            20.00000            20.00000            20.00000            20.00000            20.00000            20.00000            20.00000            20.00000            20.00000            20.00000            20.00000            20.00000            20.00000            20.00000            20.00000            20.00000            20.00000            20.00000            20.00000            20.00000            20.00000            20.00000            20.00000            20.00000            20.00000            20.00000            20.00000            20.00000            20.00000            20.00000            20.00000            20.00000            20.00000            20.00000            20.00000            20.00000            20.00000            20.00000            20.00000            20.00000            20.00000            20.00000            20.00000            20.00000            20.00000            20.00000            20.00000            20.00000            20.00000            20.00000            20.00000            20.00000            20.00000            20.00000            20.00000            20.00000            20.00000            20.00000            20.00000            20.00000            20.00000            20.00000            20.00000            20.00000            20.00000            20.00000            20.00000            20.00000            20.00000            20.00000            20.00000            20.00000            20.00000            20.00000            20.00000            20.00000            20.00000            20.00000            20.00000            20.00000            20.00000            20.00000            20.00000            20.00000            20.00000            20.00000            20.00000            20.00000            20.00000            20.00000            20.00000            20.00000            20.00000            20.00000            20.00000            20.00000            20.00000            20.00000            20.00000            20.00000            20.00000            20.00000            20.00000            20.00000            20.00000            20.00000            20.00000            20.00000            20.00000            20.00000            20.00000            20.00000            20.00000            20.00000            20.00000            20.00000            20.00000            20.00000            20.00000            20.00000            20.00000            20.00000            20.00000            20.00000            20.00000            20.00000            20.00000            20.00000            20.00000            20.00000            20.00000            20.00000            20.00000            20.00000            20.00000            20.00000            20.00000            20.00000            20.00000            20.00000            20.00000            20.00000            20.00000            20.00000            20.00000            20.00000            20.00000            20.00000            20.00000            20.00000            20.00000            20.00000            20.00000            20.00000            20.00000            20.00000            20.00000            20.00000            20.00000            20.00000            20.00000            20.00000            20.00000            20.00000            20.00000            20.00000            20.00000            20.00000            20.00000            20.00000            20.00000            20.00000            20.00000            20.00000            20.00000            20.00000            20.00000            20.00000            20.00000            20.00000            20.00000            20.00000            20.00000            20.00000            20.00000            20.00000            20.00000            20.00000            20.00000            20.00000            20.00000            20.00000            20.00000            20.00000            20.00000            20.00000            20.00000            20.00000            20.00000            20.00000            20.00000            20.00000            20.00000            20.00000            20.00000            20.00000            20.00000            20.00000            20.00000            20.00000            20.00000            20.00000            20.00000            20.00000            20.00000            20.00000            20.00000            20.00000            20.00000            20.00000            20.00000            20.00000            20.00000            20.00000            20.00000            20.00000            20.00000            20.00000            20.00000            20.00000            20.00000            20.00000            20.00000            20.00000            20.00000            20.00000            20.00000            20.00000            20.00000            20.00000            20.00000            20.00000            20.00000            20.00000            20.00000            20.00000            20.00000            20.00000            20.00000            20.00000            20.00000            20.00000            20.00000            20.00000            20.00000            20.00000            20.00000            20.00000            20.00000            20.00000            20.00000            20.00000            20.00000            20.00000            20.00000            20.00000            20.00000            20.00000            20.00000            20.00000            20.00000            20.00000            20.00000            20.00000            20.00000            20.00000            20.00000            20.00000            20.00000            20.00000            20.00000            20.00000            20.00000            20.00000            20.00000            20.00000            20.00000            20.00000            20.00000            20.00000            20.00000            20.00000            20.00000            20.00000            20.00000            20.00000            20.00000            20.00000            20.00000            20.00000            20.00000            20.00000            20.00000            20.00000            20.00000            20.00000            20.00000            20.00000            20.00000            20.00000            20.00000            20.00000            20.00000            20.00000            20.00000            20.00000            20.00000            20.00000            20.00000            20.00000            20.00000            20.00000            20.00000            20.00000            20.00000            20.00000            20.00000            20.00000            20.00000            20.00000            20.00000            20.00000            20.00000            20.00000            20.00000            20.00000            20.00000            20.00000            20.00000            20.00000            20.00000            20.00000            20.00000            20.00000            20.00000            20.00000            20.00000            20.00000            20.00000            20.00000            20.00000            20.00000            20.00000            20.00000            20.00000            20.00000            20.00000            20.00000            20.00000            20.00000            20.00000            20.00000            20.00000            20.00000            20.00000            20.00000            20.00000            20.00000            20.00000            20.00000            20.00000            20.00000            20.00000            20.00000            20.00000            20.00000            20.00000            20.00000            20.00000            20.00000            20.00000            20.00000            20.00000            20.00000            20.00000            20.00000            20.00000            20.00000            20.00000            20.00000            20.00000            20.00000            20.00000            20.00000            20.00000            20.00000            20.00000            20.00000            20.00000            20.00000            20.00000            20.00000            20.00000            20.00000            20.00000            20.00000            20.00000            20.00000