# vtk DataFile Version 3.0
Output from cR2
ASCII
DATASET UNSTRUCTURED_GRID
POINTS       2139 double
     0.00000     0.00000   0.
     0.00000    -0.05500   0.
     0.00000    -0.11550   0.
     0.00000    -0.18205   0.
     0.00000    -0.25526   0.
     0.00000    -0.33578   0.
     0.00000    -0.42436   0.
     0.00000    -0.52179   0.
     0.00000    -0.62897   0.
     0.00000    -0.74687   0.
     0.00000    -0.87656   0.
     0.00000    -1.01921   0.
     0.00000    -1.17614   0.
     0.00000    -1.34875   0.
     0.00000    -1.53862   0.
     0.00000    -1.74749   0.
     0.00000    -1.97724   0.
     0.00000    -2.22996   0.
     0.00000    -2.50795   0.
     0.00000    -2.81375   0.
     0.00000    -3.15012   0.
     0.00000    -3.52014   0.
     0.00000    -3.92715   0.
     0.12500     0.00000   0.
     0.12500    -0.05500   0.
     0.12500    -0.11550   0.
     0.12500    -0.18205   0.
     0.12500    -0.25526   0.
     0.12500    -0.33578   0.
     0.12500    -0.42436   0.
     0.12500    -0.52179   0.
     0.12500    -0.62897   0.
     0.12500    -0.74687   0.
     0.12500    -0.87656   0.
     0.12500    -1.01921   0.
     0.12500    -1.17614   0.
     0.12500    -1.34875   0.
     0.12500    -1.53862   0.
     0.12500    -1.74749   0.
     0.12500    -1.97724   0.
     0.12500    -2.22996   0.
     0.12500    -2.50795   0.
     0.12500    -2.81375   0.
     0.12500    -3.15012   0.
     0.12500    -3.52014   0.
     0.12500    -3.92715   0.
     0.25000     0.00000   0.
     0.25000    -0.05500   0.
     0.25000    -0.11550   0.
     0.25000    -0.18205   0.
     0.25000    -0.25526   0.
     0.25000    -0.33578   0.
     0.25000    -0.42436   0.
     0.25000    -0.52179   0.
     0.25000    -0.62897   0.
     0.25000    -0.74687   0.
     0.25000    -0.87656   0.
     0.25000    -1.01921   0.
     0.25000    -1.17614   0.
     0.25000    -1.34875   0.
     0.25000    -1.53862   0.
     0.25000    -1.74749   0.
     0.25000    -1.97724   0.
     0.25000    -2.22996   0.
     0.25000    -2.50795   0.
     0.25000    -2.81375   0.
     0.25000    -3.15012   0.
     0.25000    -3.52014   0.
     0.25000    -3.92715   0.
     0.37500     0.00000   0.
     0.37500    -0.05500   0.
     0.37500    -0.11550   0.
     0.37500    -0.18205   0.
     0.37500    -0.25526   0.
     0.37500    -0.33578   0.
     0.37500    -0.42436   0.
     0.37500    -0.52179   0.
     0.37500    -0.62897   0.
     0.37500    -0.74687   0.
     0.37500    -0.87656   0.
     0.37500    -1.01921   0.
     0.37500    -1.17614   0.
     0.37500    -1.34875   0.
     0.37500    -1.53862   0.
     0.37500    -1.74749   0.
     0.37500    -1.97724   0.
     0.37500    -2.22996   0.
     0.37500    -2.50795   0.
     0.37500    -2.81375   0.
     0.37500    -3.15012   0.
     0.37500    -3.52014   0.
     0.37500    -3.92715   0.
     0.50000     0.00000   0.
     0.50000    -0.05500   0.
     0.50000    -0.11550   0.
     0.50000    -0.18205   0.
     0.50000    -0.25526   0.
     0.50000    -0.33578   0.
     0.50000    -0.42436   0.
     0.50000    -0.52179   0.
     0.50000    -0.62897   0.
     0.50000    -0.74687   0.
     0.50000    -0.87656   0.
     0.50000    -1.01921   0.
     0.50000    -1.17614   0.
     0.50000    -1.34875   0.
     0.50000    -1.53862   0.
     0.50000    -1.74749   0.
     0.50000    -1.97724   0.
     0.50000    -2.22996   0.
     0.50000    -2.50795   0.
     0.50000    -2.81375   0.
     0.50000    -3.15012   0.
     0.50000    -3.52014   0.
     0.50000    -3.92715   0.
     0.62500     0.00000   0.
     0.62500    -0.05500   0.
     0.62500    -0.11550   0.
     0.62500    -0.18205   0.
     0.62500    -0.25526   0.
     0.62500    -0.33578   0.
     0.62500    -0.42436   0.
     0.62500    -0.52179   0.
     0.62500    -0.62897   0.
     0.62500    -0.74687   0.
     0.62500    -0.87656   0.
     0.62500    -1.01921   0.
     0.62500    -1.17614   0.
     0.62500    -1.34875   0.
     0.62500    -1.53862   0.
     0.62500    -1.74749   0.
     0.62500    -1.97724   0.
     0.62500    -2.22996   0.
     0.62500    -2.50795   0.
     0.62500    -2.81375   0.
     0.62500    -3.15012   0.
     0.62500    -3.52014   0.
     0.62500    -3.92715   0.
     0.75000     0.00000   0.
     0.75000    -0.05500   0.
     0.75000    -0.11550   0.
     0.75000    -0.18205   0.
     0.75000    -0.25526   0.
     0.75000    -0.33578   0.
     0.75000    -0.42436   0.
     0.75000    -0.52179   0.
     0.75000    -0.62897   0.
     0.75000    -0.74687   0.
     0.75000    -0.87656   0.
     0.75000    -1.01921   0.
     0.75000    -1.17614   0.
     0.75000    -1.34875   0.
     0.75000    -1.53862   0.
     0.75000    -1.74749   0.
     0.75000    -1.97724   0.
     0.75000    -2.22996   0.
     0.75000    -2.50795   0.
     0.75000    -2.81375   0.
     0.75000    -3.15012   0.
     0.75000    -3.52014   0.
     0.75000    -3.92715   0.
     0.87500     0.00000   0.
     0.87500    -0.05500   0.
     0.87500    -0.11550   0.
     0.87500    -0.18205   0.
     0.87500    -0.25526   0.
     0.87500    -0.33578   0.
     0.87500    -0.42436   0.
     0.87500    -0.52179   0.
     0.87500    -0.62897   0.
     0.87500    -0.74687   0.
     0.87500    -0.87656   0.
     0.87500    -1.01921   0.
     0.87500    -1.17614   0.
     0.87500    -1.34875   0.
     0.87500    -1.53862   0.
     0.87500    -1.74749   0.
     0.87500    -1.97724   0.
     0.87500    -2.22996   0.
     0.87500    -2.50795   0.
     0.87500    -2.81375   0.
     0.87500    -3.15012   0.
     0.87500    -3.52014   0.
     0.87500    -3.92715   0.
     1.00000     0.00000   0.
     1.00000    -0.05500   0.
     1.00000    -0.11550   0.
     1.00000    -0.18205   0.
     1.00000    -0.25526   0.
     1.00000    -0.33578   0.
     1.00000    -0.42436   0.
     1.00000    -0.52179   0.
     1.00000    -0.62897   0.
     1.00000    -0.74687   0.
     1.00000    -0.87656   0.
     1.00000    -1.01921   0.
     1.00000    -1.17614   0.
     1.00000    -1.34875   0.
     1.00000    -1.53862   0.
     1.00000    -1.74749   0.
     1.00000    -1.97724   0.
     1.00000    -2.22996   0.
     1.00000    -2.50795   0.
     1.00000    -2.81375   0.
     1.00000    -3.15012   0.
     1.00000    -3.52014   0.
     1.00000    -3.92715   0.
     1.12500     0.00000   0.
     1.12500    -0.05500   0.
     1.12500    -0.11550   0.
     1.12500    -0.18205   0.
     1.12500    -0.25526   0.
     1.12500    -0.33578   0.
     1.12500    -0.42436   0.
     1.12500    -0.52179   0.
     1.12500    -0.62897   0.
     1.12500    -0.74687   0.
     1.12500    -0.87656   0.
     1.12500    -1.01921   0.
     1.12500    -1.17614   0.
     1.12500    -1.34875   0.
     1.12500    -1.53862   0.
     1.12500    -1.74749   0.
     1.12500    -1.97724   0.
     1.12500    -2.22996   0.
     1.12500    -2.50795   0.
     1.12500    -2.81375   0.
     1.12500    -3.15012   0.
     1.12500    -3.52014   0.
     1.12500    -3.92715   0.
     1.25000     0.00000   0.
     1.25000    -0.05500   0.
     1.25000    -0.11550   0.
     1.25000    -0.18205   0.
     1.25000    -0.25526   0.
     1.25000    -0.33578   0.
     1.25000    -0.42436   0.
     1.25000    -0.52179   0.
     1.25000    -0.62897   0.
     1.25000    -0.74687   0.
     1.25000    -0.87656   0.
     1.25000    -1.01921   0.
     1.25000    -1.17614   0.
     1.25000    -1.34875   0.
     1.25000    -1.53862   0.
     1.25000    -1.74749   0.
     1.25000    -1.97724   0.
     1.25000    -2.22996   0.
     1.25000    -2.50795   0.
     1.25000    -2.81375   0.
     1.25000    -3.15012   0.
     1.25000    -3.52014   0.
     1.25000    -3.92715   0.
     1.37500     0.00000   0.
     1.37500    -0.05500   0.
     1.37500    -0.11550   0.
     1.37500    -0.18205   0.
     1.37500    -0.25526   0.
     1.37500    -0.33578   0.
     1.37500    -0.42436   0.
     1.37500    -0.52179   0.
     1.37500    -0.62897   0.
     1.37500    -0.74687   0.
     1.37500    -0.87656   0.
     1.37500    -1.01921   0.
     1.37500    -1.17614   0.
     1.37500    -1.34875   0.
     1.37500    -1.53862   0.
     1.37500    -1.74749   0.
     1.37500    -1.97724   0.
     1.37500    -2.22996   0.
     1.37500    -2.50795   0.
     1.37500    -2.81375   0.
     1.37500    -3.15012   0.
     1.37500    -3.52014   0.
     1.37500    -3.92715   0.
     1.50000     0.00000   0.
     1.50000    -0.05500   0.
     1.50000    -0.11550   0.
     1.50000    -0.18205   0.
     1.50000    -0.25526   0.
     1.50000    -0.33578   0.
     1.50000    -0.42436   0.
     1.50000    -0.52179   0.
     1.50000    -0.62897   0.
     1.50000    -0.74687   0.
     1.50000    -0.87656   0.
     1.50000    -1.01921   0.
     1.50000    -1.17614   0.
     1.50000    -1.34875   0.
     1.50000    -1.53862   0.
     1.50000    -1.74749   0.
     1.50000    -1.97724   0.
     1.50000    -2.22996   0.
     1.50000    -2.50795   0.
     1.50000    -2.81375   0.
     1.50000    -3.15012   0.
     1.50000    -3.52014   0.
     1.50000    -3.92715   0.
     1.62500     0.00000   0.
     1.62500    -0.05500   0.
     1.62500    -0.11550   0.
     1.62500    -0.18205   0.
     1.62500    -0.25526   0.
     1.62500    -0.33578   0.
     1.62500    -0.42436   0.
     1.62500    -0.52179   0.
     1.62500    -0.62897   0.
     1.62500    -0.74687   0.
     1.62500    -0.87656   0.
     1.62500    -1.01921   0.
     1.62500    -1.17614   0.
     1.62500    -1.34875   0.
     1.62500    -1.53862   0.
     1.62500    -1.74749   0.
     1.62500    -1.97724   0.
     1.62500    -2.22996   0.
     1.62500    -2.50795   0.
     1.62500    -2.81375   0.
[...]
POINT_DATA      2139
CELL_DATA      2024
SCALARS Magnitude(ohm.m) double 1
LOOKUP_TABLE default
           100.00000           100.00000           100.00000           100.00000           100.00000           100.00000           100.00000           100.00000           100.00000           100.00000           100.00000           100.00000           100.00000           100.00000           100.00000           100.00000           100.00000           100.00000           100.00000           100.00000           100.00000           100.00000           100.00000           100.00000           100.00000           100.00000           100.00000           100.00000           100.00000           100.00000           100.00000           100.00000           100.00000           100.00000           100.00000           100.00000           100.00000           100.00000           100.00000           100.00000           100.00000           100.00000           100.00000           100.00000           100.00000           100.00000           100.00000           100.00000           100.00000           100.00000           100.00000           100.00000           100.00000           100.00000           100.00000           100.00000           100.00000           100.00000           100.00000           100.00000           100.00000           100.00000           100.00000           100.00000           100.00000           100.00000           100.00000           100.00000           100.00000           100.00000           100.00000           100.00000           100.00000           100.00000           100.00000           100.00000           100.00000           100.00000           100.00000           100.00000           100.00000           100.00000           100.00000           100.00000           100.00000           100.00000           100.00000           100.00000           100.00000           100.00000           100.00000           100.00000           100.00000           100.00000           100.00000           100.00000           100.00000           100.00000           100.00000           100.00000           100.00000           100.00000           100.00000           100.00000           100.00000           100.00000           100.00000           100.00000           100.00000           100.00000           100.00000           100.00000           100.00000           100.00000           100.00000           100.00000           100.00000           100.00000           100.00000           100.00000           100.00000           100.00000           100.00000           100.00000           100.00000           100.00000           100.00000           100.00000           100.00000           100.00000           100.00000           100.00000           100.00000           100.00000           100.00000           100.00000           100.00000           100.00000           100.00000           100.00000           100.00000           100.00000           100.00000           100.00000           100.00000           100.00000           100.00000           100.00000           100.00000           100.00000           100.00000           100.00000           100.00000           100.00000           100.00000           100.00000           100.00000           100.00000           100.00000           100.00000           100.00000           100.00000           100.00000           100.00000           100.00000           100.00000           100.00000           100.00000           100.00000           100.00000           100.00000           100.00000           100.00000           100.00000           100.00000           100.00000           100.00000           100.00000           100.00000           100.00000           100.00000           100.00000           100.00000           100.00000           100.00000           100.00000           100.00000           100.00000           100.00000           100.00000           100.00000           100.00000           100.00000           100.00000           100.00000           100.00000           100.00000           100.00000           100.00000           100.00000           100.00000           100.00000           100.00000           100.00000           100.00000           100.00000           100.00000           100.00000           100.00000           100.00000           100.00000           100.00000           100.00000           100.00000           100.00000           100.00000           100.00000           100.00000           100.00000           100.00000           100.00000           100.00000           100.00000           100.00000           100.00000           100.00000           100.00000           100.00000           100.00000           100.00000           100.00000           100.00000           100.00000           100.00000           100.00000           100.00000           100.00000           100.00000           100.00000           100.00000           100.00000           100.00000           100.00000           100.00000           100.00000           100.00000           100.00000           100.00000           100.00000           100.00000           100.00000           100.00000           100.00000           100.00000           100.00000           100.00000           100.00000           100.00000           100.00000           100.00000           100.00000           100.00000           100.00000           100.00000           100.00000           100.00000           100.00000           100.00000           100.00000           100.00000           100.00000           100.00000           100.00000           100.00000           100.00000           100.00000           100.00000           100.00000           100.00000           100.00000           100.00000           100.00000           100.00000           100.00000           100.00000           100.00000           100.00000           100.00000           100.00000           100.00000           100.00000           100.00000           100.00000           100.00000           100.00000           100.00000           100.00000           100.00000           100.00000           100.00000           100.00000           100.00000           100.00000           100.00000           100.00000           100.00000           100.00000           100.00000           100.00000           100.00000           100.00000           100.00000           100.00000           100.00000           100.00000           100.00000           100.00000           100.00000           100.00000           100.00000           100.00000           100.00000           100.00000           100.00000           100.00000           100.00000           100.00000           100.00000           100.00000           100.00000           100.00000           100.00000           100.00000           100.00000           100.00000           100.00000           100.00000           100.00000           100.00000           100.00000           100.00000           100.00000           100.00000           100.00000           100.00000           100.00000           100.00000           100.00000           100.00000           100.00000           100.00000           100.00000           100.00000           100.00000           100.00000           100.00000           100.00000            10.00000            10.00000            10.00000            10.00000            10.00000            10.00000            10.00000            10.00000            10.00000            10.00000            10.00000           100.00000           100.00000           100.00000           100.00000           100.00000           100.00000           100.00000           100.00000           100.00000           100.00000           100.00000            10.00000            10.00000            10.00000            10.00000            10.00000            10.00000            10.00000            10.00000            10.00000            10.00000            10.00000           100.00000           100.00000           100.00000           100.00000           100.00000           100.00000           100.00000           100.00000           100.00000           100.00000           100.00000            10.00000            10.00000            10.00000            10.00000            10.00000            10.00000            10.00000            10.00000            10.00000            10.00000            10.00000           100.00000           100.00000           100.00000           100.00000           100.00000           100.00000           100.00000           100.00000           100.00000           100.00000           100.00000            10.00000            10.00000            10.00000            10.00000            10.00000            10.00000            10.00000            10.00000            10.00000            10.00000            10.00000           100.00000           100.00000           100.00000           100.00000           100.00000           100.00000           100.00000           100.00000           100.00000           100.00000           100.00000            10.00000            10.00000            10.00000            10.00000            10.00000            10.00000            10.00000            10.00000            10.00000            10.00000            10.00000           100.00000           100.00000           100.00000           100.00000           100.00000           100.00000           100.00000           100.00000           100.00000           100.00000           100.00000            10.00000            10.00000            10.00000            10.00000            10.00000            10.00000            10.00000            10.00000            10.00000            10.00000            10.00000           100.00000           100.00000           100.00000           100.00000           100.00000           100.00000           100.00000           100.00000           100.00000           100.00000           100.00000            10.00000            10.00000            10.00000            10.00000            10.00000            10.00000            10.00000            10.00000            10.00000            10.00000            10.00000           100.00000           100.00000           100.00000           100.00000           100.00000           100.00000           100.00000           100.00000           100.00000           100.00000           100.00000            10.00000            10.00000            10.00000            10.00000            10.00000            10.00000            10.00000            10.00000            10.00000            10.00000            10.00000           100.00000           100.00000           100.00000           100.00000           100.00000           100.00000           100.00000           100.00000           100.00000           100.00000           100.00000           100.00000           100.00000           100.00000           100.00000           100.00000           100.00000           100.00000           100.00000           100.00000           100.00000           100.00000           100.00000           100.00000           100.00000           100.00000           100.00000           100.00000           100.00000           100.00000           100.00000           100.00000           100.00000           100.00000           100.00000           100.00000           100.00000           100.00000           100.00000           100.00000           100.00000           100.00000           100.00000           100.00000           100.00000           100.00000           100.00000           100.00000           100.00000           100.00000           100.00000           100.00000           100.00000           100.00000           100.00000           100.00000           100.00000           100.00000           100.00000           100.00000           100.00000           100.00000           100.00000           100.00000           100.00000           100.00000           100.00000           100.00000           100.00000           100.00000           100.00000           100.00000           100.00000           100.00000           100.00000           100.00000           100.00000           100.00000           100.00000           100.00000           100.00000           100.00000           100.00000           100.00000           100.00000           100.00000           100.00000           100.00000           100.00000           100.00000           100.00000           100.00000           100.00000           100.00000           100.00000           100.00000           100.00000           100.00000           100.00000           100.00000           100.00000           100.00000           100.00000           100.00000           100.00000           100.00000           100.00000           100.00000           100.00000           100.00000           100.00000           100.00000           100.00000           100.00000           100.00000           100.00000           100.00000           100.00000           100.00000           100.00000           100.00000           100.00000           100.00000           100.00000           100.00000           100.00000           100.00000           100.00000           100.00000           100.00000           100.00000           100.00000           100.00000           100.00000           100.00000           100.00000           100.00000           100.00000           100.00000           100.00000           100.00000           100.00000           100.00000           100.00000           100.00000           100.00000           100.00000           100.00000           100.00000           100.00000           100.00000           100.00000           100.00000           100.00000           100.00000           100.00000           100.00000           100.00000           100.00000           100.00000           100.00000           100.00000           100.00000           100.00000           100.00000           100.00000           100.00000           100.00000           100.00000           100.00000           100.00000           100.00000           100.00000           100.00000           100.00000           100.00000           100.00000           100.00000           100.00000           100.00000           100.00000           100.00000           100.00000           100.00000           100.00000           100.00000           100.00000           100.00000           100.00000           100.00000           100.00000           100.00000           100.00000           100.00000           100.00000           100.00000           100.00000           100.00000           100.00000           100.00000           100.00000           100.00000           100.00000           100.00000           100.00000           100.00000           100.00000           100.00000           100.00000           100.00000           100.00000           100.00000           100.00000           100.00000           100.00000           100.00000           100.00000           100.00000           100.00000           100.00000           100.00000           100.00000           100.00000           100.00000           100.00000           100.00000           100.00000           100.00000           100.00000           100.00000           100.00000           100.00000           100.00000           100.00000           100.00000           100.00000           100.00000           100.00000           100.00000           100.00000           100.00000           100.00000           100.00000           100.00000           100.00000           100.00000           100.00000           100.00000           100.00000           100.00000           100.00000           100.00000           100.00000           100.00000           100.00000           100.00000           100.00000           100.00000           100.00000           100.00000           100.00000           100.00000           100.00000           100.00000           100.00000           100.00000           100.00000           100.00000           100.00000           100.00000           100.00000           100.00000           100.00000           100.00000           100.00000           100.00000           100.00000           100.00000           100.00000           100.00000           100.00000           100.00000           100.00000           100.00000           100.00000           100.00000           100.00000           100.00000           100.00000           100.00000           100.00000           100.00000           100.00000           100.00000           100.00000           100.00000           100.00000           100.00000           100.00000           100.00000           100.00000           100.00000           100.00000           100.00000           100.00000           100.00000           100.00000           100.00000           100.00000           100.00000           100.00000           100.00000           100.00000           100.00000           100.00000           100.00000           100.00000           100.00000           100.00000           100.00000           100.00000           100.00000           100.00000           100.00000           100.00000           100.00000           100.00000           100.00000           100.00000           100.00000           100.00000           100.00000           100.00000           100.00000           100.00000           100.00000           100.00000           100.00000           100.00000           100.00000           100.00000           100.00000           100.00000           100.00000           100.00000           100.00000           100.00000           100.00000           100.00000           100.00000           100.00000           100.00000           100.00000           100.00000           100.00000           100.00000           100.00000           100.00000           100.00000           100.00000           100.00000           100.00000           100.00000           100.00000           100.00000           100.00000           100.00000           100.00000           100.00000           100.00000           100.00000           100.00000           100.00000           100.00000           100.00000           100.00000           100.00000           100.00000           100.00000           100.00000           100.00000           100.00000           100.00000           100.00000           100.00000           100.00000           100.00000           100.00000           100.00000           100.00000           100.00000           100.00000           100.00000           100.00000           100.00000           100.00000           100.00000           100.00000           100.00000           100.00000           100.00000           100.00000           100.00000           100.00000           100.00000           100.00000           100.00000           100.00000           100.00000           100.00000           100.00000           100.00000           100.00000           100.00000           100.00000           100.00000           100.00000           100.00000           100.00000           100.00000           100.00000           100.00000           100.00000           100.00000           100.00000           100.00000           100.00000           100.00000           100.00000           100.00000           100.00000           100.00000           100.00000           100.00000           100.00000           100.00000           100.00000           100.00000           100.00000           100.00000           100.00000           100.00000           100.00000           100.00000           100.00000           100.00000           100.00000           100.00000           100.00000           100.00000           100.00000           100.00000           100.00000           100.00000           100.00000           100.00000           100.00000           100.00000           100.00000           100.00000           100.00000           100.00000           100.00000           100.00000           100.00000           100.00000           100.00000           100.00000           100.00000           100.00000           100.00000           100.00000           100.00000