# vtk DataFile Version 3.0
Output from cR2
ASCII
DATASET UNSTRUCTURED_GRID
POINTS       2139 double
     0.00000     0.00000   0.
     0.00000    -0.05500   0.
     0.00000    -0.11550   0.
     0.00000    -0.18205   0.
     0.00000    -0.25526   0.
     0.00000    -0.33578   0.
     0.00000    -0.42436   0.
     0.00000    -0.52179   0.
     0.00000    -0.62897   0.
     0.00000    -0.74687   0.
     0.00000    -0.87656   0.
     0.00000    -1.01921   0.
     0.00000    -1.17614   0.
     0.00000    -1.34875   0.
     0.00000    -1.53862   0.
     0.00000    -1.74749   0.
     0.00000    -1.97724   0.
     0.00000    -2.22996   0.
     0.00000    -2.50795   0.
     0.00000    -2.81375   0.
     0.00000    -3.15012   0.
     0.00000    -3.52014   0.
     0.00000    -3.92715   0.
     0.12500     0.00000   0.
     0.12500    -0.05500   0.
     0.12500    -0.11550   0.
     0.12500    -0.18205   0.
     0.12500    -0.25526   0.
     0.12500    -0.33578   0.
     0.12500    -0.42436   0.
     0.12500    -0.52179   0.
     0.12500    -0.62897   0.
     0.12500    -0.74687   0.
     0.12500    -0.87656   0.
     0.12500    -1.01921   0.
     0.12500    -1.17614   0.
     0.12500    -1.34875   0.
     0.12500    -1.53862   0.
     0.12500    -1.74749   0.
     0.12500    -1.97724   0.
     0.12500    -2.22996   0.
     0.12500    -2.50795   0.
     0.12500    -2.81375   0.
     0.12500    -3.15012   0.
     0.12500    -3.52014   0.
     0.12500    -3.92715   0.
     0.25000     0.00000   0.
     0.25000    -0.05500   0.
     0.25000    -0.11550   0.
     0.25000    -0.18205   0.
     0.25000    -0.25526   0.
     0.25000    -0.33578   0.
     0.25000    -0.42436   0.
     0.25000    -0.52179   0.
     0.25000    -0.62897   0.
     0.25000    -0.74687   0.
     0.25000    -0.87656   0.
     0.25000    -1.01921   0.
     0.25000    -1.17614   0.
     0.25000    -1.34875   0.
     0.25000    -1.53862   0.
     0.25000    -1.74749   0.
     0.25000    -1.97724   0.
     0.25000    -2.22996   0.
     0.25000    -2.50795   0.
     0.25000    -2.81375   0.
     0.25000    -3.15012   0.
     0.25000    -3.52014   0.
     0.25000    -3.92715   0.
     0.37500     0.00000   0.
     0.37500    -0.05500   0.
     0.37500    -0.11550   0.
     0.37500    -0.18205   0.
     0.37500    -0.25526   0.
     0.37500    -0.33578   0.
     0.37500    -0.42436   0.
     0.37500    -0.52179   0.
     0.37500    -0.62897   0.
     0.37500    -0.74687   0.
     0.37500    -0.87656   0.
     0.37500    -1.01921   0.
     0.37500    -1.17614   0.
     0.37500    -1.34875   0.
     0.37500    -1.53862   0.
     0.37500    -1.74749   0.
     0.37500    -1.97724   0.
     0.37500    -2.22996   0.
     0.37500    -2.50795   0.
     0.37500    -2.81375   0.
     0.37500    -3.15012   0.
     0.37500    -3.52014   0.
     0.37500    -3.92715   0.
     0.50000     0.00000   0.
     0.50000    -0.05500   0.
     0.50000    -0.11550   0.
     0.50000    -0.18205   0.
     0.50000    -0.25526   0.
     0.50000    -0.33578   0.
     0.50000    -0.42436   0.
     0.50000    -0.52179   0.
     0.50000    -0.62897   0.
     0.50000    -0.74687   0.
     0.50000    -0.87656   0.
     0.50000    -1.01921   0.
     0.50000    -1.17614   0.
     0.50000    -1.34875   0.
     0.50000    -1.53862   0.
     0.50000    -1.74749   0.
     0.50000    -1.97724   0.
     0.50000    -2.22996   0.
     0.50000    -2.50795   0.
     0.50000    -2.81375   0.
     0.50000    -3.15012   0.
     0.50000    -3.52014   0.
     0.50000    -3.92715   0.
     0.62500     0.00000   0.
     0.62500    -0.05500   0.
     0.62500    -0.11550   0.
     0.62500    -0.18205   0.
     0.62500    -0.25526   0.
     0.62500    -0.33578   0.
     0.62500    -0.42436   0.
     0.62500    -0.52179   0.
     0.62500    -0.62897   0.
     0.62500    -0.74687   0.
     0.62500    -0.87656   0.
     0.62500    -1.01921   0.
     0.62500    -1.17614   0.
     0.62500    -1.34875   0.
     0.62500    -1.53862   0.
     0.62500    -1.74749   0.
     0.62500    -1.97724   0.
     0.62500    -2.22996   0.
     0.62500    -2.50795   0.
     0.62500    -2.81375   0.
     0.62500    -3.15012   0.
     0.62500    -3.52014   0.
     0.62500    -3.92715   0.
     0.75000     0.00000   0.
     0.75000    -0.05500   0.
     0.75000    -0.11550   0.
     0.75000    -0.18205   0.
     0.75000    -0.25526   0.
     0.75000    -0.33578   0.
     0.75000    -0.42436   0.
     0.75000    -0.52179   0.
     0.75000    -0.62897   0.
     0.75000    -0.74687   0.
     0.75000    -0.87656   0.
     0.75000    -1.01921   0.
     0.75000    -1.17614   0.
     0.75000    -1.34875   0.
     0.75000    -1.53862   0.
     0.75000    -1.74749   0.
     0.75000    -1.97724   0.
     0.75000    -2.22996   0.
     0.75000    -2.50795   0.
     0.75000    -2.81375   0.
     0.75000    -3.15012   0.
     0.75000    -3.52014   0.
     0.75000    -3.92715   0.
     0.87500     0.00000   0.
     0.87500    -0.05500   0.
     0.87500    -0.11550   0.
     0.87500    -0.18205   0.
     0.87500    -0.25526   0.
     0.87500    -0.33578   0.
     0.87500    -0.42436   0.
     0.87500    -0.52179   0.
     0.87500    -0.62897   0.
     0.87500    -0.74687   0.
     0.87500    -0.87656   0.
     0.87500    -1.01921   0.
     0.87500    -1.17614   0.
     0.87500    -1.34875   0.
     0.87500    -1.53862   0.
     0.87500    -1.74749   0.
     0.87500    -1.97724   0.
     0.87500    -2.22996   0.
     0.87500    -2.50795   0.
     0.87500    -2.81375   0.
     0.87500    -3.15012   0.
     0.87500    -3.52014   0.
     0.87500    -3.92715   0.
     1.00000     0.00000   0.
     1.00000    -0.05500   0.
     1.00000    -0.11550   0.
     1.00000    -0.18205   0.
     1.00000    -0.25526   0.
     1.00000    -0.33578   0.
     1.00000    -0.42436   0.
     1.00000    -0.52179   0.
     1.00000    -0.62897   0.
     1.00000    -0.74687   0.
     1.00000    -0.87656   0.
     1.00000    -1.01921   0.
     1.00000    -1.17614   0.
     1.00000    -1.34875   0.
     1.00000    -1.53862   0.
     1.00000    -1.74749   0.
     1.00000    -1.97724   0.
     1.00000    -2.22996   0.
     1.00000    -2.50795   0.
     1.00000    -2.81375   0.
     1.00000    -3.15012   0.
     1.00000    -3.52014   0.
     1.00000    -3.92715   0.
     1.12500     0.00000   0.
     1.12500    -0.05500   0.
     1.12500    -0.11550   0.
     1.12500    -0.18205   0.
     1.12500    -0.25526   0.
     1.12500    -0.33578   0.
     1.12500    -0.42436   0.
     1.12500    -0.52179   0.
     1.12500    -0.62897   0.
     1.12500    -0.74687   0.
     1.12500    -0.87656   0.
     1.12500    -1.01921   0.
     1.12500    -1.17614   0.
     1.12500    -1.34875   0.
     1.12500    -1.53862   0.
     1.12500    -1.74749   0.
     1.12500    -1.97724   0.
     1.12500    -2.22996   0.
     1.12500    -2.50795   0.
     1.12500    -2.81375   0.
     1.12500    -3.15012   0.
     1.12500    -3.52014   0.
     1.12500    -3.92715   0.
     1.25000     0.00000   0.
     1.25000    -0.05500   0.
     1.25000    -0.11550   0.
     1.25000    -0.18205   0.
     1.25000    -0.25526   0.
     1.25000    -0.33578   0.
     1.25000    -0.42436   0.
     1.25000    -0.52179   0.
     1.25000    -0.62897   0.
     1.25000    -0.74687   0.
     1.25000    -0.87656   0.
     1.25000    -1.01921   0.
     1.25000    -1.17614   0.
     1.25000    -1.34875   0.
     1.25000    -1.53862   0.
     1.25000    -1.74749   0.
     1.25000    -1.97724   0.
     1.25000    -2.22996   0.
     1.25000    -2.50795   0.
     1.25000    -2.81375   0.
     1.25000    -3.15012   0.
     1.25000    -3.52014   0.
     1.25000    -3.92715   0.
     1.37500     0.00000   0.
     1.37500    -0.05500   0.
     1.37500    -0.11550   0.
     1.37500    -0.18205   0.
     1.37500    -0.25526   0.
     1.37500    -0.33578   0.
     1.37500    -0.42436   0.
     1.37500    -0.52179   0.
     1.37500    -0.62897   0.
     1.37500    -0.74687   0.
     1.37500    -0.87656   0.
     1.37500    -1.01921   0.
     1.37500    -1.17614   0.
     1.37500    -1.34875   0.
     1.37500    -1.53862   0.
     1.37500    -1.74749   0.
     1.37500    -1.97724   0.
     1.37500    -2.22996   0.
     1.37500    -2.50795   0.
     1.37500    -2.81375   0.
     1.37500    -3.15012   0.
     1.37500    -3.52014   0.
     1.37500    -3.92715   0.
     1.50000     0.00000   0.
     1.50000    -0.05500   0.
     1.50000    -0.11550   0.
     1.50000    -0.18205   0.
     1.50000    -0.25526   0.
     1.50000    -0.33578   0.
     1.50000    -0.42436   0.
     1.50000    -0.52179   0.
     1.50000    -0.62897   0.
     1.50000    -0.74687   0.
     1.50000    -0.87656   0.
     1.50000    -1.01921   0.
     1.50000    -1.17614   0.
     1.50000    -1.34875   0.
     1.50000    -1.53862   0.
     1.50000    -1.74749   0.
     1.50000    -1.97724   0.
     1.50000    -2.22996   0.
     1.50000    -2.50795   0.
     1.50000    -2.81375   0.
     1.50000    -3.15012   0.
     1.50000    -3.52014   0.
     1.50000    -3.92715   0.
     1.62500     0.00000   0.
     1.62500    -0.05500   0.
     1.62500    -0.11550   0.
     1.62500    -0.18205   0.
     1.62500    -0.25526   0.
     1.62500    -0.33578   0.
     1.62500    -0.42436   0.
     1.62500    -0.52179   0.
     1.62500    -0.62897   0.
     1.62500    -0.74687   0.
     1.62500    -0.87656   0.
     1.62500    -1.01921   0.
     1.62500    -1.17614   0.
     1.62500    -1.34875   0.
     1.62500    -1.53862   0.
     1.62500    -1.74749   0.
     1.62500    -1.97724   0.
     1.62500    -2.22996   0.
     1.62500    -2.50795   0.
     1.62500    -2.81375   0.
[...]
POINT_DATA      2139
CELL_DATA      2024
SCALARS Magnitude(ohm.m) double 1
LOOKUP_TABLE default
            94.58555            93.99933            93.03586            91.77165            90.25220            88.52537            86.64518            84.67079            82.66487            80.68370            78.77057            76.95437            75.25425            73.67677            72.22100            70.88453            69.66471            68.55932            67.56444            66.67738            65.89500            65.21195            97.20241            96.64891            95.60708            94.17346            92.41480            90.38910            88.16466            85.82361            83.45293            81.13054            78.91468            76.84445            74.93903            73.20332            71.63108            70.21416            68.94427            67.81217            66.81197            65.93567            65.17496            64.52115            99.72181            99.23396            98.27545            96.86563            95.00676            92.73619            90.14193            87.35081            84.50344            81.72444            79.10446            76.69812            74.52966            72.59817            70.88934            69.38426            68.06531            66.91619            65.92045            65.06691            64.34262            63.73347           100.64221           100.07607            99.59146            98.79179            97.35436            95.18149            92.37080            89.13999            85.74329            82.40263            79.27522            76.45118            73.96390            71.80459            69.94568            68.35422            66.99715            65.84431            64.87192            64.06004            63.38947            62.84106            92.30213            94.99234            97.39436            98.74706            98.73152            97.27550            94.56846            90.99998            87.02340            83.03502            79.31014            75.99780            73.14714            70.74299            68.73654            67.07197            65.69869            64.56974            63.64680            62.90074            62.30654            61.84076            90.04077            92.07106            95.21097            98.05331            99.51228            99.01925            96.59936            92.74494            88.14597            83.43036            79.03316            75.18462            71.95494            69.31297            67.18364            65.48302            64.13169            63.06392            62.22723            61.58119            61.09233            60.73152            89.57405            91.47893            94.74854            98.26022           100.62596           100.79150            98.48314            94.20609            88.86145            83.32465            78.20654            73.81589            70.23206            67.40039            65.20748            63.52973            62.25929            61.30582            60.60149            60.09475            59.74414            59.51780            90.21549            92.24509            95.82326            99.76858           102.53578           102.81424           100.15916            95.12343            88.82817            82.38112            76.53981            71.66396            67.81600            64.89355            62.73294            61.16867            60.05650            59.28399            58.76714            58.44521            58.27153            58.20821            90.05857            92.92503            97.33562           101.88106           104.83249           104.74692           101.21647            95.02178            87.57173            80.18817            73.71710            68.50618            64.55843            61.70137            59.71063            58.37412            57.51612            57.00128            56.73385            56.64558            56.68590            56.81768            90.80660            93.78168            98.78144           103.85520           106.74258           105.81606           100.89795            93.20639            84.51892            76.32291            69.45575            64.17182            60.36762            57.78427            56.13248            55.15671            54.65618            54.48196            54.52685            54.72015            55.01301            55.36845            92.39701            95.71435           101.04115           105.94883           107.86985           105.23957            98.33914            88.94177            79.15095            70.47779            63.60923            58.61866            55.26109            53.18506            52.04974            51.57108            51.53034            51.77072            52.18736            52.70884            53.28665            53.89072            95.87843           100.13131           105.07975           108.36933           107.75741           102.22527            92.77285            81.70927            71.23841            62.64029            56.28611            52.00175            49.39625            48.04958            47.58998            47.72093            48.22366            48.94411            49.77814            50.66009            51.54987            52.42157           106.84259           108.06614           109.98284           109.84535           105.25649            95.90861            83.75222            71.49213            61.06519            53.22693            47.91207            44.69665            43.08338            42.62080            42.94042            43.75634            44.85569            46.09248            47.37307            48.63911            49.85476            51.00328           108.64827           110.38739           111.39926           108.23667            99.18365            85.83196            71.52775            59.02547            49.53852            43.09554            39.20016            37.25697            36.73736            37.21161            38.33851            39.85410            41.56315            43.32768            45.06059            46.71196            48.25686            49.68476           110.15897           112.39164           112.05428           104.20682            89.54361            72.54236            57.33819            45.80984            38.03769            33.34918            30.97688            30.28807            30.80180            32.14675            34.02657            36.20305            38.49144            40.76223            42.93257            44.95822            46.82014            48.51511           115.17372           119.40034           113.63431            97.39997            76.65861            57.61325            43.23918            33.68914            27.96395            24.98650            23.94666            24.29525            25.64934            27.71103            30.22590            32.97452            35.77898            38.50801            41.07939            43.44952            45.60381            47.54644           133.85037           126.82735           109.73182            85.73742            62.02440            43.61531            31.40606            24.12420            20.22584            18.58345            18.50454            19.57564            21.51825            24.10076            27.10218            30.31154            33.54547            36.66627            39.58506            42.25661            44.66703            46.82401           122.03245           113.93544            96.09428            71.91463            49.30829            33.06345            23.12550            17.65398            15.02163            14.22238            14.71417            16.20536            18.50215            21.42218            24.76395            28.31673            31.88684            35.32183            38.52328            41.44120            44.06197            46.39478           113.93931           105.65612            87.48190            63.32118            41.71782            26.99815            18.45984            14.00988            12.04487            11.66400            12.42610            14.11693            16.59602            19.71184            23.27352            27.06448            30.87716            34.54463            37.95671            41.05872            43.83457            46.29472           116.50507           109.86626            89.41357            62.75461            40.08719            25.24038            16.89748            12.67313            10.87805            10.60890            11.44669            13.20303            15.75938            18.97724            22.66740            26.60626            30.57397            34.39112            37.93795            41.15348            44.02267            46.55770           130.44024           122.42502            99.51058            69.59368            44.06199            27.36863            18.03200            13.31333            11.27558            10.88661            11.66895            13.40959            15.97967            19.23553            22.98296            26.98984            31.02707            34.90784            38.50779            41.76346            44.65783            47.20753           134.50181           126.87566           107.56348            78.89346            51.70956            32.75202            21.70105            15.91662            13.26697            12.53978            13.14073            14.78758            17.31091            20.54284            24.27442            28.26540            32.28156            36.13377            39.69778            42.91112            45.76001            48.26073           137.38634           130.32148           112.96184            86.88393            60.51419            40.53506            27.89070            20.74516            17.15500            15.83745            16.08243            17.51143            19.88717            22.99968            26.61744            30.48947            34.37903            38.09907            41.52945            44.61259            47.33702            49.72271           136.18524           128.75521           113.07436            91.39684            68.88881            50.11002            36.73582            28.25705            23.45284            21.23439            20.85731            21.85319            23.90326            26.73960            30.09751            33.71347            37.34871            40.81863            44.00880            46.86733            49.38725            51.58791           120.97140           117.37960           108.01361            93.87442            77.49266            61.68662            48.56264            38.96659            32.72821            29.23977            27.86977            28.10821            29.55794            31.88542            34.78417            37.96917            41.19632            44.28445            47.12170            49.65895            51.89133            53.83962           121.73552           117.55388           109.94356           100.08444            88.46584            75.77065            63.46247            53.02854            45.24225            40.13985            37.36331            36.44922            36.95519            38.48437            40.68202            43.23572            45.88863            48.45551            50.82553            52.94806            54.81525            56.44665           124.99951           121.10903           115.03780           108.33994           100.57715            91.00293            80.13624            69.46528            60.38091            53.58384            49.13482            46.74027            45.98164            46.43035            47.68962            49.41563            51.33447            53.25085            55.04739            56.66964            58.10521            59.36426           122.01525           117.55044           114.29370           111.96624           108.85348           103.38376            95.28787            85.70133            76.27762            68.28992            62.31808            58.38705            56.21630            55.40984            55.56384            56.31678            57.37782            58.54240            59.68475            60.74104            61.68998            62.53435            97.24398           100.67409           104.19229           107.53646           109.72939           109.27593           105.35927            98.52972            90.30058            82.25932            75.47087            70.37045            66.93636            64.90503            63.92551            63.65314            63.80146            64.16248            64.60416            65.05496            65.48540            65.88775            93.96627            95.19723            97.79912           101.87104           106.39961           109.46151           109.48844           106.16166           100.38147            93.58127            87.02923            81.49632            77.26284            74.27373            72.30388            71.07797            70.34376            69.91018            69.65086            69.49194            69.39573            69.34801            94.42988            94.38475            95.40995            98.46560           102.95211           107.17878           109.48093           109.01653           105.97083           101.23473            95.88094            90.76694            86.38284            82.88744            80.22411            78.23284            76.73488            75.58083            74.66562            73.92467            73.32161            72.83636            95.07468            93.63953            94.31265            96.94893           100.74553           104.62771           107.52262           108.66795           107.82648           105.28824           101.67308            97.65452            93.75320            90.26472            87.28909            84.80214            82.72592            80.97783            79.49525            78.23417            77.16685            76.27394            83.82797            88.02638            92.32350            96.13517            99.47592           102.44308           104.93348           106.63111           107.20498           106.52154           104.72250           102.14887            99.18836            96.15434            93.24461            90.55715            88.12323            85.94398            84.01086            82.31462            80.84546            79.59188            85.12368            88.14736            92.57676            96.33778            98.84435           100.65399           102.32892           103.96029           105.28000           105.93741           105.71856           104.62327           102.81759           100.53409            97.99491            95.37659            92.80556            90.36681            88.11453            86.08230            84.28683            82.73114            88.86824            91.35552            94.85317            97.43211            98.63233            99.22647           100.02685           101.32571           102.93754           104.44169           105.42147           105.61783           104.96792           103.56439           101.58737            99.24347            96.72391            94.18445            91.74350            89.48031            87.43968            85.64261            93.07716            95.20553            97.40234            98.50428            98.49876            98.14689            98.23729            99.13780           100.75742           102.70379           104.48380           105.67699           106.03479           105.49747           104.16196           102.21946            99.89128            97.38518            94.87210            92.47356            90.26836            88.29589            89.59969            93.24617            96.51141            98.09325            98.09604            97.43673            97.08836            97.60653            99.05662           101.13796           103.36576           105.24246           106.38780           106.60878           105.90265           104.41483           102.36551            99.99062            97.49969            95.05346            92.75685            90.66991            88.11905            90.97466            94.87387            97.42142            97.92872            97.26572            96.62122            96.76819            97.93808            99.94240           102.34285           104.62091           106.32034           107.14433           106.99688           105.95886           104.22886           102.04955            99.65344            97.22826            94.90440            92.75967            89.12995            91.90956            95.70984            98.17421            98.56322            97.68594            96.72551            96.50851            97.35214            99.15363           101.53466           103.99198           106.03653           107.30193           107.61110           106.98235           105.57596           103.62583           101.37328            99.02269            96.72265            94.56697            92.21045            95.50191            98.50042            99.90636            99.61921            98.37473            97.13448            96.61974            97.15887            98.71114           100.96058           103.44176           105.66361           107.22185           107.88094           107.59909           106.49672           104.78640           102.70591           100.46650            98.23018            96.10397            95.76014            97.66099            99.62616           100.51680           100.09112            98.84429            97.55928            96.89675            97.20819            98.51827           100.58393           102.98959           105.26472           106.99369           107.90249           107.90331           107.07250           105.59514           103.69866           101.59616            99.45360            97.38474            93.54706            95.37749            97.91131            99.59832            99.82929            98.99979            97.89713            97.22069            97.38376            98.48341           100.34769           102.62025           104.86480           106.67194           107.74833           107.96810           107.37113           106.11346           104.40348           102.44898           100.41929            98.43280            92.25550            94.29321            97.14007            99.16795            99.73297            99.17392            98.22431            97.56155            97.61640            98.53331           100.19817           102.31022           104.47307           106.29250           107.46925           107.85327           107.45117           106.39009           104.86152           103.06232           101.15715            99.26693            93.26624            96.08728            98.59889            99.99439           100.18128            99.51772            98.57214            97.89149            97.85461            98.61259           100.09109           102.03447           104.08511           105.87297           107.09936           107.60021           107.35726           106.47144           105.11397           103.46907           101.69538            99.91089           100.38984           100.40537           100.79522           100.97411           100.61757            99.79477            98.83897            98.15204            98.05016            98.67937            99.99203           101.77298           103.69940           105.42623           106.66710           107.24809           107.13096           106.39689           105.19741           103.70141           102.05893           100.38776            98.96916            99.47561           100.17759           100.58022           100.41292