# vtk DataFile Version 3.0
Output from cR2
ASCII
DATASET UNSTRUCTURED_GRID
POINTS       2205 double
     0.00000     0.00000   0.
     0.00000    -0.14000   0.
     0.00000    -0.28000   0.
     0.00000    -0.41000   0.
     0.00000    -0.55000   0.
     0.00000    -0.69000   0.
     0.00000    -0.83000   0.
     0.00000    -0.96000   0.
     0.00000    -1.10000   0.
     0.00000    -1.24000   0.
     0.00000    -1.38000   0.
     0.00000    -1.51000   0.
     0.00000    -1.65000   0.
     0.00000    -1.73000   0.
     0.00000    -1.80000   0.
     0.00000    -1.88000   0.
     0.00000    -1.95000   0.
     0.00000    -2.03000   0.
     0.00000    -2.11000   0.
     0.00000    -2.18000   0.
     0.00000    -2.26000   0.
     0.00000    -2.34000   0.
     0.00000    -2.41000   0.
     0.00000    -2.49000   0.
     0.00000    -2.56000   0.
     0.00000    -2.64000   0.
     0.00000    -2.72000   0.
     0.00000    -2.79000   0.
     0.00000    -2.87000   0.
     0.00000    -2.95000   0.
     0.00000    -3.02000   0.
     0.00000    -3.10000   0.
     0.00000    -3.17000   0.
     0.00000    -3.25000   0.
     0.00000    -3.33000   0.
     0.00000    -3.40000   0.
     0.00000    -3.48000   0.
     0.00000    -3.55000   0.
     0.00000    -3.63000   0.
     0.00000    -3.71000   0.
     0.00000    -3.78000   0.
     0.00000    -3.86000   0.
     0.00000    -3.94000   0.
     0.00000    -4.01000   0.
     0.00000    -4.09000   0.
     0.00000    -4.16000   0.
     0.00000    -4.24000   0.
     0.00000    -4.32000   0.
     0.00000    -4.39000   0.
     0.00000    -4.47000   0.
     0.00000    -4.55000   0.
     0.00000    -4.62000   0.
     0.00000    -4.70000   0.
     0.00000    -4.77000   0.
     0.00000    -4.85000   0.
     0.00000    -4.93000   0.
     0.00000    -5.00000   0.
     0.00000    -5.08000   0.
     0.00000    -5.16000   0.
     0.00000    -5.23000   0.
     0.00000    -5.31000   0.
     0.00000    -5.38000   0.
     0.00000    -5.46000   0.
     0.00000    -5.54000   0.
     0.00000    -5.61000   0.
     0.00000    -5.69000   0.
     0.00000    -5.76000   0.
     0.00000    -5.84000   0.
     0.00000    -5.92000   0.
     0.00000    -5.99000   0.
     0.00000    -6.07000   0.
     0.00000    -6.15000   0.
     0.00000    -6.22000   0.
     0.00000    -6.30000   0.
     0.00000    -6.37000   0.
     0.00000    -6.45000   0.
     0.00000    -6.53000   0.
     0.00000    -6.60000   0.
     0.00000    -6.68000   0.
     0.00000    -6.76000   0.
     0.00000    -6.83000   0.
     0.00000    -6.91000   0.
     0.00000    -6.98000   0.
     0.00000    -7.06000   0.
     0.00000    -7.14000   0.
     0.00000    -7.21000   0.
     0.00000    -7.29000   0.
     0.00000    -7.36000   0.
     0.00000    -7.44000   0.
     0.00000    -7.52000   0.
     0.00000    -7.59000   0.
     0.00000    -7.67000   0.
     0.00000    -7.75000   0.
     0.00000    -7.82000   0.
     0.00000    -7.90000   0.
     0.00000    -7.97000   0.
     0.00000    -8.05000   0.
     0.00000    -8.13000   0.
     0.00000    -8.20000   0.
     0.00000    -8.28000   0.
     0.00000    -8.36000   0.
     0.00000    -8.43000   0.
     0.00000    -8.51000   0.
     0.00000    -8.58000   0.
     0.00000    -8.66000   0.
     0.20000     0.00000   0.
     0.20000    -0.14000   0.
     0.20000    -0.28000   0.
     0.20000    -0.41000   0.
     0.20000    -0.55000   0.
     0.20000    -0.69000   0.
     0.20000    -0.83000   0.
     0.20000    -0.96000   0.
     0.20000    -1.10000   0.
     0.20000    -1.24000   0.
     0.20000    -1.38000   0.
     0.20000    -1.51000   0.
     0.20000    -1.65000   0.
     0.20000    -1.73000   0.
     0.20000    -1.80000   0.
     0.20000    -1.88000   0.
     0.20000    -1.95000   0.
     0.20000    -2.03000   0.
     0.20000    -2.11000   0.
     0.20000    -2.18000   0.
     0.20000    -2.26000   0.
     0.20000    -2.34000   0.
     0.20000    -2.41000   0.
     0.20000    -2.49000   0.
     0.20000    -2.56000   0.
     0.20000    -2.64000   0.
     0.20000    -2.72000   0.
     0.20000    -2.79000   0.
     0.20000    -2.87000   0.
     0.20000    -2.95000   0.
     0.20000    -3.02000   0.
     0.20000    -3.10000   0.
     0.20000    -3.17000   0.
     0.20000    -3.25000   0.
     0.20000    -3.33000   0.
     0.20000    -3.40000   0.
     0.20000    -3.48000   0.
     0.20000    -3.55000   0.
     0.20000    -3.63000   0.
     0.20000    -3.71000   0.
     0.20000    -3.78000   0.
     0.20000    -3.86000   0.
     0.20000    -3.94000   0.
     0.20000    -4.01000   0.
     0.20000    -4.09000   0.
     0.20000    -4.16000   0.
     0.20000    -4.24000   0.
     0.20000    -4.32000   0.
     0.20000    -4.39000   0.
     0.20000    -4.47000   0.
     0.20000    -4.55000   0.
     0.20000    -4.62000   0.
     0.20000    -4.70000   0.
     0.20000    -4.77000   0.
     0.20000    -4.85000   0.
     0.20000    -4.93000   0.
     0.20000    -5.00000   0.
     0.20000    -5.08000   0.
     0.20000    -5.16000   0.
     0.20000    -5.23000   0.
     0.20000    -5.31000   0.
     0.20000    -5.38000   0.
     0.20000    -5.46000   0.
     0.20000    -5.54000   0.
     0.20000    -5.61000   0.
     0.20000    -5.69000   0.
     0.20000    -5.76000   0.
     0.20000    -5.84000   0.
     0.20000    -5.92000   0.
     0.20000    -5.99000   0.
     0.20000    -6.07000   0.
     0.20000    -6.15000   0.
     0.20000    -6.22000   0.
     0.20000    -6.30000   0.
     0.20000    -6.37000   0.
     0.20000    -6.45000   0.
     0.20000    -6.53000   0.
     0.20000    -6.60000   0.
     0.20000    -6.68000   0.
     0.20000    -6.76000   0.
     0.20000    -6.83000   0.
     0.20000    -6.91000   0.
     0.20000    -6.98000   0.
     0.20000    -7.06000   0.
     0.20000    -7.14000   0.
     0.20000    -7.21000   0.
     0.20000    -7.29000   0.
     0.20000    -7.36000   0.
     0.20000    -7.44000   0.
     0.20000    -7.52000   0.
     0.20000    -7.59000   0.
     0.20000    -7.67000   0.
     0.20000    -7.75000   0.
     0.20000    -7.82000   0.
     0.20000    -7.90000   0.
     0.20000    -7.97000   0.
     0.20000    -8.05000   0.
     0.20000    -8.13000   0.
     0.20000    -8.20000   0.
     0.20000    -8.28000   0.
     0.20000    -8.36000   0.
     0.20000    -8.43000   0.
     0.20000    -8.51000   0.
     0.20000    -8.58000   0.
     0.20000    -8.66000   0.
     0.40000     0.00000   0.
     0.40000    -0.14000   0.
     0.40000    -0.28000   0.
     0.40000    -0.41000   0.
     0.40000    -0.55000   0.
     0.40000    -0.69000   0.
     0.40000    -0.83000   0.
     0.40000    -0.96000   0.
     0.40000    -1.10000   0.
     0.40000    -1.24000   0.
     0.40000    -1.38000   0.
     0.40000    -1.51000   0.
     0.40000    -1.65000   0.
     0.40000    -1.73000   0.
     0.40000    -1.80000   0.
     0.40000    -1.88000   0.
     0.40000    -1.95000   0.
     0.40000    -2.03000   0.
     0.40000    -2.11000   0.
     0.40000    -2.18000   0.
     0.40000    -2.26000   0.
     0.40000    -2.34000   0.
     0.40000    -2.41000   0.
     0.40000    -2.49000   0.
     0.40000    -2.56000   0.
     0.40000    -2.64000   0.
     0.40000    -2.72000   0.
     0.40000    -2.79000   0.
     0.40000    -2.87000   0.
     0.40000    -2.95000   0.
     0.40000    -3.02000   0.
     0.40000    -3.10000   0.
     0.40000    -3.17000   0.
     0.40000    -3.25000   0.
     0.40000    -3.33000   0.
     0.40000    -3.40000   0.
     0.40000    -3.48000   0.
     0.40000    -3.55000   0.
     0.40000    -3.63000   0.
     0.40000    -3.71000   0.
     0.40000    -3.78000   0.
     0.40000    -3.86000   0.
     0.40000    -3.94000   0.
     0.40000    -4.01000   0.
     0.40000    -4.09000   0.
     0.40000    -4.16000   0.
     0.40000    -4.24000   0.
     0.40000    -4.32000   0.
     0.40000    -4.39000   0.
     0.40000    -4.47000   0.
     0.40000    -4.55000   0.
     0.40000    -4.62000   0.
     0.40000    -4.70000   0.
     0.40000    -4.77000   0.
     0.40000    -4.85000   0.
     0.40000    -4.93000   0.
     0.40000    -5.00000   0.
     0.40000    -5.08000   0.
     0.40000    -5.16000   0.
     0.40000    -5.23000   0.
     0.40000    -5.31000   0.
     0.40000    -5.38000   0.
     0.40000    -5.46000   0.
     0.40000    -5.54000   0.
     0.40000    -5.61000   0.
     0.40000    -5.69000   0.
     0.40000    -5.76000   0.
     0.40000    -5.84000   0.
     0.40000    -5.92000   0.
     0.40000    -5.99000   0.
     0.40000    -6.07000   0.
     0.40000    -6.15000   0.
     0.40000    -6.22000   0.
     0.40000    -6.30000   0.
     0.40000    -6.37000   0.
     0.40000    -6.45000   0.
     0.40000    -6.53000   0.
     0.40000    -6.60000   0.
     0.40000    -6.68000   0.
     0.40000    -6.76000   0.
     0.40000    -6.83000   0.
     0.40000    -6.91000   0.
     0.40000    -6.98000   0.
     0.40000    -7.06000   0.
     0.40000    -7.14000   0.
     0.40000    -7.21000   0.
     0.40000    -7.29000   0.
     0.40000    -7.36000   0.
     0.40000    -7.44000   0.
     0.40000    -7.52000   0.
     0.40000    -7.59000   0.
     0.40000    -7.67000   0.
     0.40000    -7.75000   0.
     0.40000    -7.82000   0.
     0.40000    -7.90000   0.
     0.40000    -7.97000   0.
     0.40000    -8.05000   0.
     0.40000    -8.13000   0.
     0.40000    -8.20000   0.
     0.40000    -8.28000   0.
     0.40000    -8.36000   0.
     0.40000    -8.43000   0.
     0.40000    -8.51000   0.
     0.40000    -8.58000   0.
     0.40000    -8.66000   0.
     0.59000     0.00000   0.
     0.59000    -0.14000   0.
     0.59000    -0.28000   0.
     0.59000    -0.41000   0.
[...]
POINT_DATA      2205
CELL_DATA      2080
SCALARS Magnitude(ohm.m) double 1
LOOKUP_TABLE default
            38.30211            38.30211            38.30211            38.30211            38.30211            38.30211            38.30211            38.30211            43.08843            43.08843            43.08843            43.08843            43.08843            43.08843            43.08843            43.08843            46.31013            46.31013            46.31013            46.31013            46.31013            46.31013            44.21692            44.21692            44.21692            44.21692            44.21692            44.21692            43.72573            43.72573            43.72573            43.72573            43.72573            43.72573            32.76423            32.76423            32.76423            32.76423            32.76423            32.76423            13.87720            13.87720            13.87720            13.87720            13.87720            13.87720            10.12581            10.12581            10.12581            10.12581            10.12581            10.12581             7.52034             7.52034             7.52034             7.52034             7.52034             7.52034             9.31937             9.31937             9.31937             9.31937             9.31937             9.31937             6.86165             6.86165             6.86165             6.86165             6.86165             6.86165             9.08131             9.08131             9.08131             9.08131             9.08131             9.08131             9.08131            21.81328            21.81328            21.81328            21.81328            21.81328            21.81328            21.81328            19.19159            19.19159            19.19159            19.19159            19.19159            19.19159            19.19159            30.65198            30.65198            30.65198            30.65198            30.65198            30.65198            30.65198            33.65272            33.65272            33.65272            33.65272            33.65272            33.65272            39.99399            39.99399            39.99399            39.99399            39.99399            39.99399            39.99399            39.99399            46.73009            46.73009            46.73009            46.73009            46.73009            46.73009            46.73009            46.73009            51.99719            51.99719            51.99719            51.99719            51.99719            51.99719            51.21152            51.21152            51.21152            51.21152            51.21152            51.21152            43.91429            43.91429            43.91429            43.91429            43.91429            43.91429            28.80317            28.80317            28.80317            28.80317            28.80317            28.80317            16.22682            16.22682            16.22682            16.22682            16.22682            16.22682            15.72253            15.72253            15.72253            15.72253            15.72253            15.72253            11.46941            11.46941            11.46941            11.46941            11.46941            11.46941            11.31324            11.31324            11.31324            11.31324            11.31324            11.31324            10.16955            10.16955            10.16955            10.16955            10.16955            10.16955            11.63011            11.63011            11.63011            11.63011            11.63011            11.63011            11.63011            18.12870            18.12870            18.12870            18.12870            18.12870            18.12870            18.12870            22.52657            22.52657            22.52657            22.52657            22.52657            22.52657            22.52657            45.50318            45.50318            45.50318            45.50318            45.50318            45.50318            45.50318            36.14580            36.14580            36.14580            36.14580            36.14580            36.14580            37.64396            37.64396            37.64396            37.64396            37.64396            37.64396            37.64396            37.64396            42.90491            42.90491            42.90491            42.90491            42.90491            42.90491            42.90491            42.90491            46.01595            46.01595            46.01595            46.01595            46.01595            46.01595            43.73270            43.73270            43.73270            43.73270            43.73270            43.73270            36.49813            36.49813            36.49813            36.49813            36.49813            36.49813            26.44571            26.44571            26.44571            26.44571            26.44571            26.44571            20.11026            20.11026            20.11026            20.11026            20.11026            20.11026            20.28425            20.28425            20.28425            20.28425            20.28425            20.28425            17.50093            17.50093            17.50093            17.50093            17.50093            17.50093            15.91553            15.91553            15.91553            15.91553            15.91553            15.91553            15.17476            15.17476            15.17476            15.17476            15.17476            15.17476            15.57706            15.57706            15.57706            15.57706            15.57706            15.57706            15.57706            19.63260            19.63260            19.63260            19.63260            19.63260            19.63260            19.63260            32.85166            32.85166            32.85166            32.85166            32.85166            32.85166            32.85166            60.84845            60.84845            60.84845            60.84845            60.84845            60.84845            60.84845            33.77467            33.77467            33.77467            33.77467            33.77467            33.77467            34.97542            34.97542            34.97542            34.97542            34.97542            34.97542            34.97542            34.97542            37.51945            37.51945            37.51945            37.51945            37.51945            37.51945            37.51945            37.51945            36.69028            36.69028            36.69028            36.69028            36.69028            36.69028            31.18879            31.18879            31.18879            31.18879            31.18879            31.18879            24.96044            24.96044            24.96044            24.96044            24.96044            24.96044            19.52345            19.52345            19.52345            19.52345            19.52345            19.52345            16.82669            16.82669            16.82669            16.82669            16.82669            16.82669            17.50364            17.50364            17.50364            17.50364            17.50364            17.50364            17.71912            17.71912            17.71912            17.71912            17.71912            17.71912            17.49851            17.49851            17.49851            17.49851            17.49851            17.49851            17.36581            17.36581            17.36581            17.36581            17.36581            17.36581            17.38361            17.38361            17.38361            17.38361            17.38361            17.38361            17.38361            20.33745            20.33745            20.33745            20.33745            20.33745            20.33745            20.33745            32.14879            32.14879            32.14879            32.14879            32.14879            32.14879            32.14879            47.13629            47.13629            47.13629            47.13629            47.13629            47.13629            47.13629            29.70636            29.70636            29.70636            29.70636            29.70636            29.70636            34.21864            34.21864            34.21864            34.21864            34.21864            34.21864            34.21864            34.21864            34.07294            34.07294            34.07294            34.07294            34.07294            34.07294            34.07294            34.07294            28.51019            28.51019            28.51019            28.51019            28.51019            28.51019            19.55290            19.55290            19.55290            19.55290            19.55290            19.55290            13.41771            13.41771            13.41771            13.41771            13.41771            13.41771             9.87956             9.87956             9.87956             9.87956             9.87956             9.87956             8.31843             8.31843             8.31843             8.31843             8.31843             8.31843             8.63402             8.63402             8.63402             8.63402             8.63402             8.63402            10.04090            10.04090            10.04090            10.04090            10.04090            10.04090            11.56658            11.56658            11.56658            11.56658            11.56658            11.56658            12.40619            12.40619            12.40619            12.40619            12.40619            12.40619            12.50399            12.50399            12.50399            12.50399            12.50399            12.50399            12.50399            13.41336            13.41336            13.41336            13.41336            13.41336            13.41336            13.41336            16.98770            16.98770            16.98770            16.98770            16.98770            16.98770            16.98770            22.89849            22.89849            22.89849            22.89849            22.89849            22.89849            22.89849            25.16155            25.16155            25.16155            25.16155            25.16155            25.16155            36.60039            36.60039            36.60039            36.60039            36.60039            36.60039            36.60039            36.60039            33.69366            33.69366            33.69366            33.69366            33.69366            33.69366            33.69366            33.69366            22.80450            22.80450            22.80450            22.80450            22.80450            22.80450            11.58485            11.58485            11.58485            11.58485            11.58485            11.58485             6.13815             6.13815             6.13815             6.13815             6.13815             6.13815             3.73562             3.73562             3.73562             3.73562             3.73562             3.73562             2.69533             2.69533             2.69533             2.69533             2.69533             2.69533             2.59987             2.59987             2.59987             2.59987             2.59987             2.59987             3.33822             3.33822             3.33822             3.33822             3.33822             3.33822             4.49570             4.49570             4.49570             4.49570             4.49570             4.49570             5.36556             5.36556             5.36556             5.36556             5.36556             5.36556             5.45184             5.45184             5.45184             5.45184             5.45184             5.45184             5.45184             5.21795             5.21795             5.21795             5.21795             5.21795             5.21795             5.21795             5.40896             5.40896             5.40896             5.40896             5.40896             5.40896             5.40896             7.86257             7.86257             7.86257             7.86257             7.86257             7.86257             7.86257            20.75676            20.75676            20.75676            20.75676            20.75676            20.75676            43.56232            43.56232            43.56232            43.56232            43.56232            43.56232            43.56232            43.56232            36.99820            36.99820            36.99820            36.99820            36.99820            36.99820            36.99820            36.99820            19.90603            19.90603            19.90603            19.90603            19.90603            19.90603             7.44600             7.44600             7.44600             7.44600             7.44600             7.44600             2.98902             2.98902             2.98902             2.98902             2.98902             2.98902             1.41763             1.41763             1.41763             1.41763             1.41763             1.41763             0.78714             0.78714             0.78714             0.78714             0.78714             0.78714             0.63857             0.63857             0.63857             0.63857             0.63857             0.63857             0.84931             0.84931             0.84931             0.84931             0.84931             0.84931             1.29828             1.29828             1.29828             1.29828             1.29828             1.29828             1.74287             1.74287             1.74287             1.74287             1.74287             1.74287             1.77369             1.77369             1.77369             1.77369             1.77369             1.77369             1.77369             1.51267             1.51267             1.51267             1.51267             1.51267             1.51267             1.51267             1.38866             1.38866             1.38866             1.38866             1.38866             1.38866             1.38866             2.20853             2.20853             2.20853             2.20853             2.20853             2.20853             2.20853            16.90453            16.90453            16.90453            16.90453            16.90453            16.90453            57.09231            57.09231            57.09231            57.09231            57.09231            57.09231            57.09231            57.09231            45.05432            45.05432            45.05432            45.05432            45.05432            45.05432            45.05432            45.05432            19.82208            19.82208            19.82208            19.82208            19.82208            19.82208             6.27713             6.27713             6.27713             6.27713             6.27713             6.27713             2.12766             2.12766             2.12766             2.12766             2.12766             2.12766             0.84772             0.84772             0.84772             0.84772             0.84772             0.84772             0.34099             0.34099             0.34099             0.34099             0.34099             0.34099             0.20737             0.20737             0.20737             0.20737             0.20737             0.20737             0.25554             0.25554             0.25554             0.25554             0.25554             0.25554             0.41161             0.41161             0.41161             0.41161             0.41161             0.41161             0.62411             0.62411             0.62411             0.62411             0.62411             0.62411             0.65981             0.65981             0.65981             0.65981             0.65981             0.65981             0.65981             0.51970             0.51970             0.51970             0.51970             0.51970             0.51970             0.51970             0.45827             0.45827             0.45827             0.45827             0.45827             0.45827             0.45827             0.60333             0.60333             0.60333             0.60333             0.60333             0.60333             0.60333            13.77023            13.77023            13.77023            13.77023            13.77023            13.77023            77.69755            77.69755            77.69755            77.69755            77.69755            77.69755            77.69755            77.69755            57.50636            57.50636            57.50636            57.50636            57.50636            57.50636            57.50636            57.50636            22.76334            22.76334            22.76334            22.76334            22.76334            22.76334             8.74378             8.74378             8.74378             8.74378             8.74378             8.74378             3.27200             3.27200             3.27200             3.27200             3.27200             3.27200             1.31411             1.31411             1.31411             1.31411             1.31411             1.31411             0.40674             0.40674             0.40674             0.40674             0.40674             0.40674             0.18952             0.18952             0.18952             0.18952             0.18952             0.18952             0.17328             0.17328             0.17328             0.17328             0.17328             0.17328             0.25706             0.25706             0.25706             0.25706             0.25706             0.25706             0.39430             0.39430             0.39430             0.39430             0.39430             0.39430             0.46784             0.46784             0.46784             0.46784             0.46784             0.46784             0.46784             0.50175             0.50175             0.50175             0.50175             0.50175             0.50175             0.50175             0.46122             0.46122             0.46122             0.46122             0.46122             0.46122             0.46122             0.23027             0.23027             0.23027             0.23027             0.23027             0.23027             0.23027            11.55422            11.55422            11.55422            11.55422            11.55422            11.55422            96.34518            96.34518            96.34518            96.34518            96.34518            96.34518            96.34518            96.34518            68.51044            68.51044            68.51044            68.51044            68.51044            68.51044            68.51044            68.51044            25.18363            25.18363            25.18363            25.18363            25.18363            25.18363            24.96418            24.96418            24.96418            24.96418            24.96418            24.96418            14.28481            14.28481            14.28481            14.28481            14.28481            14.28481             5.44538             5.44538             5.44538             5.44538             5.44538             5.44538             1.76816             1.76816             1.76816             1.76816             1.76816             1.76816             1.04056             1.04056             1.04056             1.04056             1.04056             1.04056             0.45793             0.45793             0.45793             0.45793             0.45793             0.45793             0.63312