# vtk DataFile Version 3.0
Output from cR2
ASCII
DATASET UNSTRUCTURED_GRID
POINTS       6900 double
   -98.51562     0.00000   0.
   -98.51562    -0.05500   0.
   -98.51562    -0.11550   0.
   -98.51562    -0.18205   0.
   -98.51562    -0.25526   0.
   -98.51562    -0.33578   0.
   -98.51562    -0.42436   0.
   -98.51562    -0.52179   0.
   -98.51562    -0.62897   0.
   -98.51562    -0.74687   0.
   -98.51562    -0.87656   0.
   -98.51562    -1.01921   0.
   -98.51562    -1.17614   0.
   -98.51562    -1.34875   0.
   -98.51562    -1.53862   0.
   -98.51562    -1.74749   0.
   -98.51562    -1.97724   0.
   -98.51562    -2.22996   0.
   -98.51562    -2.50795   0.
   -98.51562    -2.81375   0.
   -98.51562    -3.15012   0.
   -98.51562    -3.52014   0.
   -98.51562    -3.92715   0.
   -98.51562    -4.37487   0.
   -98.51562    -4.86735   0.
   -98.51562    -5.40909   0.
   -98.51562    -6.00500   0.
   -98.51562    -6.66050   0.
   -98.51562    -7.38155   0.
   -98.51562    -8.17470   0.
   -98.51562    -9.04717   0.
   -98.51562   -10.00689   0.
   -98.51562   -11.06258   0.
   -98.51562   -12.22383   0.
   -98.51562   -13.50122   0.
   -98.51562   -14.90634   0.
   -98.51562   -16.45197   0.
   -98.51562   -18.15217   0.
   -98.51562   -20.02239   0.
   -98.51562   -22.07963   0.
   -98.51562   -24.34259   0.
   -98.51562   -27.17129   0.
   -98.51562   -30.70717   0.
   -98.51562   -35.12702   0.
   -98.51562   -40.65183   0.
   -98.51562   -47.55785   0.
   -98.51562   -56.19037   0.
   -98.51562   -66.98101   0.
   -98.51562   -80.46932   0.
   -98.51562   -97.32971   0.
   -98.51562  -118.40519   0.
   -98.51562  -144.74955   0.
   -98.51562  -177.67999   0.
   -98.51562  -218.84304   0.
   -98.51562  -270.29686   0.
   -98.51562  -334.61413   0.
   -98.51562  -415.01072   0.
   -98.51562  -515.50645   0.
   -98.51562  -641.12612   0.
   -98.51562  -798.15071   0.
   -64.34375     0.00000   0.
   -64.34375    -0.05500   0.
   -64.34375    -0.11550   0.
   -64.34375    -0.18205   0.
   -64.34375    -0.25526   0.
   -64.34375    -0.33578   0.
   -64.34375    -0.42436   0.
   -64.34375    -0.52179   0.
   -64.34375    -0.62897   0.
   -64.34375    -0.74687   0.
   -64.34375    -0.87656   0.
   -64.34375    -1.01921   0.
   -64.34375    -1.17614   0.
   -64.34375    -1.34875   0.
   -64.34375    -1.53862   0.
   -64.34375    -1.74749   0.
   -64.34375    -1.97724   0.
   -64.34375    -2.22996   0.
   -64.34375    -2.50795   0.
   -64.34375    -2.81375   0.
   -64.34375    -3.15012   0.
   -64.34375    -3.52014   0.
   -64.34375    -3.92715   0.
   -64.34375    -4.37487   0.
   -64.34375    -4.86735   0.
   -64.34375    -5.40909   0.
   -64.34375    -6.00500   0.
   -64.34375    -6.66050   0.
   -64.34375    -7.38155   0.
   -64.34375    -8.17470   0.
   -64.34375    -9.04717   0.
   -64.34375   -10.00689   0.
   -64.34375   -11.06258   0.
   -64.34375   -12.22383   0.
   -64.34375   -13.50122   0.
   -64.34375   -14.90634   0.
   -64.34375   -16.45197   0.
   -64.34375   -18.15217   0.
   -64.34375   -20.02239   0.
   -64.34375   -22.07963   0.
   -64.34375   -24.34259   0.
   -64.34375   -27.17129   0.
   -64.34375   -30.70717   0.
   -64.34375   -35.12702   0.
   -64.34375   -40.65183   0.
   -64.34375   -47.55785   0.
   -64.34375   -56.19037   0.
   -64.34375   -66.98101   0.
   -64.34375   -80.46932   0.
   -64.34375   -97.32971   0.
   -64.34375  -118.40519   0.
   -64.34375  -144.74955   0.
   -64.34375  -177.67999   0.
   -64.34375  -218.84304   0.
   -64.34375  -270.29686   0.
   -64.34375  -334.61413   0.
   -64.34375  -415.01072   0.
   -64.34375  -515.50645   0.
   -64.34375  -641.12612   0.
   -64.34375  -798.15071   0.
   -41.56250     0.00000   0.
   -41.56250    -0.05500   0.
   -41.56250    -0.11550   0.
   -41.56250    -0.18205   0.
   -41.56250    -0.25526   0.
   -41.56250    -0.33578   0.
   -41.56250    -0.42436   0.
   -41.56250    -0.52179   0.
   -41.56250    -0.62897   0.
   -41.56250    -0.74687   0.
   -41.56250    -0.87656   0.
   -41.56250    -1.01921   0.
   -41.56250    -1.17614   0.
   -41.56250    -1.34875   0.
   -41.56250    -1.53862   0.
   -41.56250    -1.74749   0.
   -41.56250    -1.97724   0.
   -41.56250    -2.22996   0.
   -41.56250    -2.50795   0.
   -41.56250    -2.81375   0.
   -41.56250    -3.15012   0.
   -41.56250    -3.52014   0.
   -41.56250    -3.92715   0.
   -41.56250    -4.37487   0.
   -41.56250    -4.86735   0.
   -41.56250    -5.40909   0.
   -41.56250    -6.00500   0.
   -41.56250    -6.66050   0.
   -41.56250    -7.38155   0.
   -41.56250    -8.17470   0.
   -41.56250    -9.04717   0.
   -41.56250   -10.00689   0.
   -41.56250   -11.06258   0.
   -41.56250   -12.22383   0.
   -41.56250   -13.50122   0.
   -41.56250   -14.90634   0.
   -41.56250   -16.45197   0.
   -41.56250   -18.15217   0.
   -41.56250   -20.02239   0.
   -41.56250   -22.07963   0.
   -41.56250   -24.34259   0.
   -41.56250   -27.17129   0.
   -41.56250   -30.70717   0.
   -41.56250   -35.12702   0.
   -41.56250   -40.65183   0.
   -41.56250   -47.55785   0.
   -41.56250   -56.19037   0.
   -41.56250   -66.98101   0.
   -41.56250   -80.46932   0.
   -41.56250   -97.32971   0.
   -41.56250  -118.40519   0.
   -41.56250  -144.74955   0.
   -41.56250  -177.67999   0.
   -41.56250  -218.84304   0.
   -41.56250  -270.29686   0.
   -41.56250  -334.61413   0.
   -41.56250  -415.01072   0.
   -41.56250  -515.50645   0.
   -41.56250  -641.12612   0.
   -41.56250  -798.15071   0.
   -26.37500     0.00000   0.
   -26.37500    -0.05500   0.
   -26.37500    -0.11550   0.
   -26.37500    -0.18205   0.
   -26.37500    -0.25526   0.
   -26.37500    -0.33578   0.
   -26.37500    -0.42436   0.
   -26.37500    -0.52179   0.
   -26.37500    -0.62897   0.
   -26.37500    -0.74687   0.
   -26.37500    -0.87656   0.
   -26.37500    -1.01921   0.
   -26.37500    -1.17614   0.
   -26.37500    -1.34875   0.
   -26.37500    -1.53862   0.
   -26.37500    -1.74749   0.
   -26.37500    -1.97724   0.
   -26.37500    -2.22996   0.
   -26.37500    -2.50795   0.
   -26.37500    -2.81375   0.
   -26.37500    -3.15012   0.
   -26.37500    -3.52014   0.
   -26.37500    -3.92715   0.
   -26.37500    -4.37487   0.
   -26.37500    -4.86735   0.
   -26.37500    -5.40909   0.
   -26.37500    -6.00500   0.
   -26.37500    -6.66050   0.
   -26.37500    -7.38155   0.
   -26.37500    -8.17470   0.
   -26.37500    -9.04717   0.
   -26.37500   -10.00689   0.
   -26.37500   -11.06258   0.
   -26.37500   -12.22383   0.
   -26.37500   -13.50122   0.
   -26.37500   -14.90634   0.
   -26.37500   -16.45197   0.
   -26.37500   -18.15217   0.
   -26.37500   -20.02239   0.
   -26.37500   -22.07963   0.
   -26.37500   -24.34259   0.
   -26.37500   -27.17129   0.
   -26.37500   -30.70717   0.
   -26.37500   -35.12702   0.
   -26.37500   -40.65183   0.
   -26.37500   -47.55785   0.
   -26.37500   -56.19037   0.
   -26.37500   -66.98101   0.
   -26.37500   -80.46932   0.
   -26.37500   -97.32971   0.
   -26.37500  -118.40519   0.
   -26.37500  -144.74955   0.
   -26.37500  -177.67999   0.
   -26.37500  -218.84304   0.
   -26.37500  -270.29686   0.
   -26.37500  -334.61413   0.
   -26.37500  -415.01072   0.
   -26.37500  -515.50645   0.
   -26.37500  -641.12612   0.
   -26.37500  -798.15071   0.
   -16.25000     0.00000   0.
   -16.25000    -0.05500   0.
   -16.25000    -0.11550   0.
   -16.25000    -0.18205   0.
   -16.25000    -0.25526   0.
   -16.25000    -0.33578   0.
   -16.25000    -0.42436   0.
   -16.25000    -0.52179   0.
   -16.25000    -0.62897   0.
   -16.25000    -0.74687   0.
   -16.25000    -0.87656   0.
   -16.25000    -1.01921   0.
   -16.25000    -1.17614   0.
   -16.25000    -1.34875   0.
   -16.25000    -1.53862   0.
   -16.25000    -1.74749   0.
   -16.25000    -1.97724   0.
   -16.25000    -2.22996   0.
   -16.25000    -2.50795   0.
   -16.25000    -2.81375   0.
   -16.25000    -3.15012   0.
   -16.25000    -3.52014   0.
   -16.25000    -3.92715   0.
   -16.25000    -4.37487   0.
   -16.25000    -4.86735   0.
   -16.25000    -5.40909   0.
   -16.25000    -6.00500   0.
   -16.25000    -6.66050   0.
   -16.25000    -7.38155   0.
   -16.25000    -8.17470   0.
   -16.25000    -9.04717   0.
   -16.25000   -10.00689   0.
   -16.25000   -11.06258   0.
   -16.25000   -12.22383   0.
   -16.25000   -13.50122   0.
   -16.25000   -14.90634   0.
   -16.25000   -16.45197   0.
   -16.25000   -18.15217   0.
   -16.25000   -20.02239   0.
   -16.25000   -22.07963   0.
   -16.25000   -24.34259   0.
   -16.25000   -27.17129   0.
   -16.25000   -30.70717   0.
   -16.25000   -35.12702   0.
   -16.25000   -40.65183   0.
   -16.25000   -47.55785   0.
   -16.25000   -56.19037   0.
   -16.25000   -66.98101   0.
   -16.25000   -80.46932   0.
   -16.25000   -97.32971   0.
   -16.25000  -118.40519   0.
   -16.25000  -144.74955   0.
   -16.25000  -177.67999   0.
   -16.25000  -218.84304   0.
   -16.25000  -270.29686   0.
   -16.25000  -334.61413   0.
   -16.25000  -415.01072   0.
   -16.25000  -515.50645   0.
   -16.25000  -641.12612   0.
   -16.25000  -798.15071   0.
    -9.50000     0.00000   0.
    -9.50000    -0.05500   0.
    -9.50000    -0.11550   0.
    -9.50000    -0.18205   0.
    -9.50000    -0.25526   0.
    -9.50000    -0.33578   0.
    -9.50000    -0.42436   0.
    -9.50000    -0.52179   0.
    -9.50000    -0.62897   0.
    -9.50000    -0.74687   0.
    -9.50000    -0.87656   0.
    -9.50000    -1.01921   0.
    -9.50000    -1.17614   0.
    -9.50000    -1.34875   0.
    -9.50000    -1.53862   0.
    -9.50000    -1.74749   0.
    -9.50000    -1.97724   0.
    -9.50000    -2.22996   0.
    -9.50000    -2.50795   0.
[...]
POINT_DATA      6900
CELL_DATA      6726
SCALARS Magnitude(ohm.m) double 1
LOOKUP_TABLE default
           100.00000           100.00000           100.00000           100.00000           100.00000           100.00000           100.00000           100.00000           100.00000           100.00000           100.00000           100.00000           100.00000           100.00000           100.00000           100.00000           100.00000           100.00000           100.00000           100.00000           100.00000           100.00000           100.00000           100.00000           100.00000           100.00000           100.00000           100.00000           100.00000           100.00000           100.00000           100.00000           100.00000           100.00000           100.00000           100.00000           100.00000           100.00000           100.00000           100.00000           100.00000           100.00000           100.00000           100.00000           100.00000           100.00000           100.00000           100.00000           100.00000           100.00000           100.00000           100.00000           100.00000           100.00000           100.00000           100.00000           100.00000           100.00000           100.00000           100.00000           100.00000           100.00000           100.00000           100.00000           100.00000           100.00000           100.00000           100.00000           100.00000           100.00000           100.00000           100.00000           100.00000           100.00000           100.00000           100.00000           100.00000           100.00000           100.00000           100.00000           100.00000           100.00000           100.00000           100.00000           100.00000           100.00000           100.00000           100.00000           100.00000           100.00000           100.00000           100.00000           100.00000           100.00000           100.00000           100.00000           100.00000           100.00000           100.00000           100.00000           100.00000           100.00000           100.00000           100.00000           100.00000           100.00000           100.00000           100.00000           100.00000           100.00000           100.00000           100.00000           100.00000           100.00000           100.00000           100.00000           100.00000           100.00000           100.00000           100.00000           100.00000           100.00000           100.00000           100.00000           100.00000           100.00000           100.00000           100.00000           100.00000           100.00000           100.00000           100.00000           100.00000           100.00000           100.00000           100.00000           100.00000           100.00000           100.00000           100.00000           100.00000           100.00000           100.00000           100.00000           100.00000           100.00000           100.00000           100.00000           100.00000           100.00000           100.00000           100.00000           100.00000           100.00000           100.00000           100.00000           100.00000           100.00000           100.00000           100.00000           100.00000           100.00000           100.00000           100.00000           100.00000           100.00000           100.00000           100.00000           100.00000           100.00000           100.00000           100.00000           100.00000           100.00000           100.00000           100.00000           100.00000           100.00000           100.00000           100.00000           100.00000           100.00000           100.00000           100.00000           100.00000           100.00000           100.00000           100.00000           100.00000           100.00000           100.00000           100.00000           100.00000           100.00000           100.00000           100.00000           100.00000           100.00000           100.00000           100.00000           100.00000           100.00000           100.00000           100.00000           100.00000           100.00000           100.00000           100.00000           100.00000           100.00000           100.00000           100.00000           100.00000           100.00000           100.00000           100.00000           100.00000           100.00000           100.00000           100.00000           100.00000           100.00000           100.00000           100.00000           100.00000           100.00000           100.00000           100.00000           100.00000           100.00000           100.00000           100.00000           100.00000           100.00000           100.00000           100.00000           100.00000           100.00000           100.00000           100.00000           100.00000           100.00000           100.00000           100.00000           100.00000           100.00000           100.00000           100.00000           100.00000           100.00000           100.00000           100.00000           100.00000           100.00000           100.00000           100.00000           100.00000           100.00000           100.00000           100.00000           100.00000           100.00000           100.00000           100.00000           100.00000           100.00000           100.00000           100.00000           100.00000           100.00000           100.00000           100.00000           100.00000           100.00000           100.00000           100.00000           100.00000           100.00000           100.00000           100.00000           100.00000           100.00000           100.00000           100.00000           100.00000           100.00000           100.00000           100.00000           100.00000           100.00000           100.00000           100.00000           100.00000           100.00000           100.00000           100.00000           100.00000           100.00000           100.00000           100.00000           100.00000           100.00000           100.00000           100.00000           100.00000           100.00000           100.00000           100.00000           100.00000           100.00000           100.00000           100.00000           100.00000           100.00000           100.00000           100.00000           100.00000           100.00000           100.00000           100.00000           100.00000           100.00000           100.00000           100.00000           100.00000           100.00000           100.00000           100.00000           100.00000           100.00000           100.00000           100.00000           100.00000           100.00000           100.00000           100.00000           100.00000           100.00000           100.00000           100.00000           100.00000           100.00000           100.00000           100.00000           100.00000           100.00000           100.00000           100.00000           100.00000           100.00000           100.00000           100.00000           100.00000           100.00000           100.00000           100.00000           100.00000           100.00000           100.00000           100.00000           100.00000           100.00000           100.00000           100.00000           100.00000           100.00000           100.00000           100.00000           100.00000           100.00000           100.00000           100.00000           100.00000           100.00000           100.00000           100.00000           100.00000           100.00000           100.00000           100.00000           100.00000           100.00000           100.00000           100.00000           100.00000           100.00000           100.00000           100.00000           100.00000           100.00000           100.00000           100.00000           100.00000           100.00000           100.00000           100.00000           100.00000           100.00000           100.00000           100.00000           100.00000           100.00000           100.00000           100.00000           100.00000           100.00000           100.00000           100.00000           100.00000           100.00000           100.00000           100.00000           100.00000           100.00000           100.00000           100.00000           100.00000           100.00000           100.00000           100.00000           100.00000           100.00000           100.00000           100.00000           100.00000           100.00000           100.00000           100.00000           100.00000           100.00000           100.00000           100.00000           100.00000           100.00000           100.00000           100.00000           100.00000           100.00000           100.00000           100.00000           100.00000           100.00000           100.00000           100.00000           100.00000           100.00000           100.00000           100.00000           100.00000           100.00000           100.00000           100.00000           100.00000           100.00000           100.00000           100.00000           100.00000           100.00000           100.00000           100.00000           100.00000           100.00000           100.00000           100.00000           100.00000           100.00000           100.00000           100.00000           100.00000           100.00000           100.00000           100.00000           100.00000           100.00000           100.00000           100.00000           100.00000           100.00000           100.00000           100.00000           100.00000           100.00000           100.00000           100.00000           100.00000           100.00000           100.00000           100.00000           100.00000           100.00000           100.00000           100.00000           100.00000           100.00000           100.00000           100.00000           100.00000           100.00000           100.00000           100.00000           100.00000           100.00000           100.00000           100.00000           100.00000           100.00000           100.00000           100.00000           100.00000           100.00000           100.00000           100.00000           100.00000           100.00000           100.00000           100.00000           100.00000           100.00000           100.00000           100.00000           100.00000           100.00000           100.00000           100.00000           100.00000           100.00000           100.00000           100.00000           100.00000           100.00000           100.00000           100.00000           100.00000           100.00000           100.00000           100.00000           100.00000           100.00000           100.00000           100.00000           100.00000           100.00000           100.00000           100.00000           100.00000           100.00000           100.00000           100.00000           100.00000           100.00000           100.00000           100.00000           100.00000           100.00000           100.00000           100.00000           100.00000           100.00000           100.00000           100.00000           100.00000           100.00000           100.00000           100.00000           100.00000           100.00000           100.00000           100.00000           100.00000           100.00000           100.00000           100.00000           100.00000           100.00000           100.00000           100.00000           100.00000           100.00000           100.00000           100.00000           100.00000           100.00000           100.00000           100.00000           100.00000           100.00000           100.00000           100.00000           100.00000           100.00000           100.00000           100.00000           100.00000           100.00000           100.00000           100.00000           100.00000           100.00000           100.00000           100.00000           100.00000           100.00000           100.00000           100.00000           100.00000           100.00000           100.00000           100.00000           100.00000           100.00000           100.00000           100.00000           100.00000           100.00000           100.00000           100.00000           100.00000           100.00000           100.00000           100.00000           100.00000           100.00000           100.00000           100.00000           100.00000           100.00000           100.00000           100.00000           100.00000           100.00000           100.00000           100.00000           100.00000           100.00000           100.00000           100.00000           100.00000           100.00000           100.00000           100.00000           100.00000           100.00000           100.00000           100.00000           100.00000           100.00000           100.00000           100.00000           100.00000           100.00000           100.00000           100.00000           100.00000           100.00000           100.00000           100.00000           100.00000           100.00000           100.00000           100.00000           100.00000           100.00000           100.00000           100.00000           100.00000           100.00000           100.00000           100.00000           100.00000           100.00000           100.00000           100.00000           100.00000           100.00000           100.00000           100.00000           100.00000           100.00000           100.00000           100.00000           100.00000           100.00000           100.00000           100.00000           100.00000           100.00000           100.00000           100.00000           100.00000           100.00000           100.00000           100.00000           100.00000           100.00000           100.00000           100.00000           100.00000           100.00000           100.00000           100.00000           100.00000           100.00000           100.00000           100.00000           100.00000           100.00000           100.00000           100.00000           100.00000           100.00000           100.00000           100.00000           100.00000           100.00000           100.00000           100.00000           100.00000           100.00000           100.00000           100.00000           100.00000           100.00000           100.00000           100.00000           100.00000           100.00000           100.00000           100.00000           100.00000           100.00000           100.00000           100.00000           100.00000           100.00000           100.00000           100.00000           100.00000           100.00000           100.00000           100.00000           100.00000           100.00000           100.00000           100.00000           100.00000           100.00000           100.00000           100.00000           100.00000           100.00000           100.00000           100.00000           100.00000           100.00000           100.00000           100.00000           100.00000           100.00000           100.00000           100.00000           100.00000           100.00000           100.00000           100.00000           100.00000           100.00000           100.00000           100.00000           100.00000           100.00000           100.00000           100.00000           100.00000           100.00000           100.00000           100.00000           100.00000           100.00000           100.00000           100.00000           100.00000           100.00000           100.00000           100.00000           100.00000           100.00000           100.00000           100.00000           100.00000           100.00000           100.00000           100.00000           100.00000           100.00000           100.00000           100.00000           100.00000           100.00000           100.00000           100.00000           100.00000           100.00000           100.00000           100.00000           100.00000           100.00000           100.00000           100.00000           100.00000           100.00000           100.00000           100.00000           100.00000           100.00000           100.00000           100.00000           100.00000           100.00000           100.00000           100.00000           100.00000           100.00000           100.00000           100.00000           100.00000           100.00000           100.00000           100.00000           100.00000           100.00000           100.00000           100.00000           100.00000           100.00000           100.00000           100.00000           100.00000           100.00000           100.00000           100.00000           100.00000           100.00000           100.00000           100.00000           100.00000           100.00000           100.00000           100.00000           100.00000           100.00000           100.00000           100.00000           100.00000           100.00000           100.00000           100.00000           100.00000           100.00000           100.00000           100.00000           100.00000           100.00000           100.00000           100.00000           100.00000           100.00000           100.00000           100.00000           100.00000           100.00000           100.00000           100.00000           100.00000           100.00000           100.00000           100.00000           100.00000           100.00000           100.00000           100.00000           100.00000           100.00000           100.00000           100.00000           100.00000           100.00000           100.00000           100.00000           100.00000           100.00000           100.00000           100.00000           100.00000           100.00000           100.00000           100.00000           100.00000           100.00000           100.00000           100.00000           100.00000           100.00000           100.00000           100.00000           100.00000           100.00000           100.00000           100.00000           100.00000           100.00000           100.00000           100.00000           100.00000           100.00000           100.00000           100.00000           100.00000           100.00000           100.00000           100.00000           100.00000           100.00000           100.00000           100.00000           100.00000           100.00000           100.00000           100.00000           100.00000           100.00000           100.00000           100.00000           100.00000           100.00000           100.00000           100.00000           100.00000           100.00000           100.00000           100.00000           100.00000           100.00000           100.00000           100.00000           100.00000           100.00000           100.00000           100.00000           100.00000           100.00000           100.00000           100.00000           100.00000           100.00000           100.00000           100.00000           100.00000           100.00000           100.00000           100.00000           100.00000           100.00000           100.00000           100.00000           100.00000           100.00000           100.00000           100.00000           100.00000           100.00000           100.00000           100.00000           100.00000           100.00000           100.00000           100.00000           100.00000           100.00000           100.00000           100.00000           100.00000           100.00000           100.00000           100.00000           100.00000           100.00000           100.00000           100.00000           100.00000           100.00000           100.00000           100.00000           100.00000           100.00000           100.00000