# vtk DataFile Version 3.0
Output from cR2
ASCII
DATASET UNSTRUCTURED_GRID
POINTS       3686 double
     0.00000     0.00000   0.
     0.00000    -0.05500   0.
     0.00000    -0.11550   0.
     0.00000    -0.18205   0.
     0.00000    -0.25526   0.
     0.00000    -0.33578   0.
     0.00000    -0.42436   0.
     0.00000    -0.52179   0.
     0.00000    -0.62897   0.
     0.00000    -0.74687   0.
     0.00000    -0.87656   0.
     0.00000    -1.01921   0.
     0.00000    -1.17614   0.
     0.00000    -1.34875   0.
     0.00000    -1.53862   0.
     0.00000    -1.74749   0.
     0.00000    -1.97724   0.
     0.00000    -2.22996   0.
     0.00000    -2.50795   0.
     0.00000    -2.81375   0.
     0.00000    -3.15012   0.
     0.00000    -3.52014   0.
     0.00000    -3.92715   0.
     0.00000    -4.37487   0.
     0.00000    -4.86735   0.
     0.00000    -5.40909   0.
     0.00000    -6.00500   0.
     0.00000    -6.66050   0.
     0.00000    -7.38155   0.
     0.00000    -8.17470   0.
     0.00000    -9.04717   0.
     0.00000   -10.00689   0.
     0.00000   -11.06258   0.
     0.00000   -12.22383   0.
     0.00000   -13.50122   0.
     0.00000   -14.90634   0.
     0.00000   -16.45197   0.
     0.00000   -18.15217   0.
     0.50000     0.00000   0.
     0.50000    -0.05500   0.
     0.50000    -0.11550   0.
     0.50000    -0.18205   0.
     0.50000    -0.25526   0.
     0.50000    -0.33578   0.
     0.50000    -0.42436   0.
     0.50000    -0.52179   0.
     0.50000    -0.62897   0.
     0.50000    -0.74687   0.
     0.50000    -0.87656   0.
     0.50000    -1.01921   0.
     0.50000    -1.17614   0.
     0.50000    -1.34875   0.
     0.50000    -1.53862   0.
     0.50000    -1.74749   0.
     0.50000    -1.97724   0.
     0.50000    -2.22996   0.
     0.50000    -2.50795   0.
     0.50000    -2.81375   0.
     0.50000    -3.15012   0.
     0.50000    -3.52014   0.
     0.50000    -3.92715   0.
     0.50000    -4.37487   0.
     0.50000    -4.86735   0.
     0.50000    -5.40909   0.
     0.50000    -6.00500   0.
     0.50000    -6.66050   0.
     0.50000    -7.38155   0.
     0.50000    -8.17470   0.
     0.50000    -9.04717   0.
     0.50000   -10.00689   0.
     0.50000   -11.06258   0.
     0.50000   -12.22383   0.
     0.50000   -13.50122   0.
     0.50000   -14.90634   0.
     0.50000   -16.45197   0.
     0.50000   -18.15217   0.
     1.00000     0.00000   0.
     1.00000    -0.05500   0.
     1.00000    -0.11550   0.
     1.00000    -0.18205   0.
     1.00000    -0.25526   0.
     1.00000    -0.33578   0.
     1.00000    -0.42436   0.
     1.00000    -0.52179   0.
     1.00000    -0.62897   0.
     1.00000    -0.74687   0.
     1.00000    -0.87656   0.
     1.00000    -1.01921   0.
     1.00000    -1.17614   0.
     1.00000    -1.34875   0.
     1.00000    -1.53862   0.
     1.00000    -1.74749   0.
     1.00000    -1.97724   0.
     1.00000    -2.22996   0.
     1.00000    -2.50795   0.
     1.00000    -2.81375   0.
     1.00000    -3.15012   0.
     1.00000    -3.52014   0.
     1.00000    -3.92715   0.
     1.00000    -4.37487   0.
     1.00000    -4.86735   0.
     1.00000    -5.40909   0.
     1.00000    -6.00500   0.
     1.00000    -6.66050   0.
     1.00000    -7.38155   0.
     1.00000    -8.17470   0.
     1.00000    -9.04717   0.
     1.00000   -10.00689   0.
     1.00000   -11.06258   0.
     1.00000   -12.22383   0.
     1.00000   -13.50122   0.
     1.00000   -14.90634   0.
     1.00000   -16.45197   0.
     1.00000   -18.15217   0.
     1.50000     0.00000   0.
     1.50000    -0.05500   0.
     1.50000    -0.11550   0.
     1.50000    -0.18205   0.
     1.50000    -0.25526   0.
     1.50000    -0.33578   0.
     1.50000    -0.42436   0.
     1.50000    -0.52179   0.
     1.50000    -0.62897   0.
     1.50000    -0.74687   0.
     1.50000    -0.87656   0.
     1.50000    -1.01921   0.
     1.50000    -1.17614   0.
     1.50000    -1.34875   0.
     1.50000    -1.53862   0.
     1.50000    -1.74749   0.
     1.50000    -1.97724   0.
     1.50000    -2.22996   0.
     1.50000    -2.50795   0.
     1.50000    -2.81375   0.
     1.50000    -3.15012   0.
     1.50000    -3.52014   0.
     1.50000    -3.92715   0.
     1.50000    -4.37487   0.
     1.50000    -4.86735   0.
     1.50000    -5.40909   0.
     1.50000    -6.00500   0.
     1.50000    -6.66050   0.
     1.50000    -7.38155   0.
     1.50000    -8.17470   0.
     1.50000    -9.04717   0.
     1.50000   -10.00689   0.
     1.50000   -11.06258   0.
     1.50000   -12.22383   0.
     1.50000   -13.50122   0.
     1.50000   -14.90634   0.
     1.50000   -16.45197   0.
     1.50000   -18.15217   0.
     2.00000     0.00000   0.
     2.00000    -0.05500   0.
     2.00000    -0.11550   0.
     2.00000    -0.18205   0.
     2.00000    -0.25526   0.
     2.00000    -0.33578   0.
     2.00000    -0.42436   0.
     2.00000    -0.52179   0.
     2.00000    -0.62897   0.
     2.00000    -0.74687   0.
     2.00000    -0.87656   0.
     2.00000    -1.01921   0.
     2.00000    -1.17614   0.
     2.00000    -1.34875   0.
     2.00000    -1.53862   0.
     2.00000    -1.74749   0.
     2.00000    -1.97724   0.
     2.00000    -2.22996   0.
     2.00000    -2.50795   0.
     2.00000    -2.81375   0.
     2.00000    -3.15012   0.
     2.00000    -3.52014   0.
     2.00000    -3.92715   0.
     2.00000    -4.37487   0.
     2.00000    -4.86735   0.
     2.00000    -5.40909   0.
     2.00000    -6.00500   0.
     2.00000    -6.66050   0.
     2.00000    -7.38155   0.
     2.00000    -8.17470   0.
     2.00000    -9.04717   0.
     2.00000   -10.00689   0.
     2.00000   -11.06258   0.
     2.00000   -12.22383   0.
     2.00000   -13.50122   0.
     2.00000   -14.90634   0.
     2.00000   -16.45197   0.
     2.00000   -18.15217   0.
     2.50000     0.00000   0.
     2.50000    -0.05500   0.
     2.50000    -0.11550   0.
     2.50000    -0.18205   0.
     2.50000    -0.25526   0.
     2.50000    -0.33578   0.
     2.50000    -0.42436   0.
     2.50000    -0.52179   0.
     2.50000    -0.62897   0.
     2.50000    -0.74687   0.
     2.50000    -0.87656   0.
     2.50000    -1.01921   0.
     2.50000    -1.17614   0.
     2.50000    -1.34875   0.
     2.50000    -1.53862   0.
     2.50000    -1.74749   0.
     2.50000    -1.97724   0.
     2.50000    -2.22996   0.
     2.50000    -2.50795   0.
     2.50000    -2.81375   0.
     2.50000    -3.15012   0.
     2.50000    -3.52014   0.
     2.50000    -3.92715   0.
     2.50000    -4.37487   0.
     2.50000    -4.86735   0.
     2.50000    -5.40909   0.
     2.50000    -6.00500   0.
     2.50000    -6.66050   0.
     2.50000    -7.38155   0.
     2.50000    -8.17470   0.
     2.50000    -9.04717   0.
     2.50000   -10.00689   0.
     2.50000   -11.06258   0.
     2.50000   -12.22383   0.
     2.50000   -13.50122   0.
     2.50000   -14.90634   0.
     2.50000   -16.45197   0.
     2.50000   -18.15217   0.
     3.00000     0.00000   0.
     3.00000    -0.05500   0.
     3.00000    -0.11550   0.
     3.00000    -0.18205   0.
     3.00000    -0.25526   0.
     3.00000    -0.33578   0.
     3.00000    -0.42436   0.
     3.00000    -0.52179   0.
     3.00000    -0.62897   0.
     3.00000    -0.74687   0.
     3.00000    -0.87656   0.
     3.00000    -1.01921   0.
     3.00000    -1.17614   0.
     3.00000    -1.34875   0.
     3.00000    -1.53862   0.
     3.00000    -1.74749   0.
     3.00000    -1.97724   0.
     3.00000    -2.22996   0.
     3.00000    -2.50795   0.
     3.00000    -2.81375   0.
     3.00000    -3.15012   0.
     3.00000    -3.52014   0.
     3.00000    -3.92715   0.
     3.00000    -4.37487   0.
     3.00000    -4.86735   0.
     3.00000    -5.40909   0.
     3.00000    -6.00500   0.
     3.00000    -6.66050   0.
     3.00000    -7.38155   0.
     3.00000    -8.17470   0.
     3.00000    -9.04717   0.
     3.00000   -10.00689   0.
     3.00000   -11.06258   0.
     3.00000   -12.22383   0.
     3.00000   -13.50122   0.
     3.00000   -14.90634   0.
     3.00000   -16.45197   0.
     3.00000   -18.15217   0.
     3.50000     0.00000   0.
     3.50000    -0.05500   0.
     3.50000    -0.11550   0.
     3.50000    -0.18205   0.
     3.50000    -0.25526   0.
     3.50000    -0.33578   0.
     3.50000    -0.42436   0.
     3.50000    -0.52179   0.
     3.50000    -0.62897   0.
     3.50000    -0.74687   0.
     3.50000    -0.87656   0.
     3.50000    -1.01921   0.
     3.50000    -1.17614   0.
     3.50000    -1.34875   0.
     3.50000    -1.53862   0.
     3.50000    -1.74749   0.
     3.50000    -1.97724   0.
     3.50000    -2.22996   0.
     3.50000    -2.50795   0.
     3.50000    -2.81375   0.
     3.50000    -3.15012   0.
     3.50000    -3.52014   0.
     3.50000    -3.92715   0.
     3.50000    -4.37487   0.
     3.50000    -4.86735   0.
     3.50000    -5.40909   0.
     3.50000    -6.00500   0.
     3.50000    -6.66050   0.
     3.50000    -7.38155   0.
     3.50000    -8.17470   0.
     3.50000    -9.04717   0.
     3.50000   -10.00689   0.
     3.50000   -11.06258   0.
     3.50000   -12.22383   0.
     3.50000   -13.50122   0.
     3.50000   -14.90634   0.
     3.50000   -16.45197   0.
     3.50000   -18.15217   0.
     4.00000     0.00000   0.
     4.00000    -0.05500   0.
     4.00000    -0.11550   0.
     4.00000    -0.18205   0.
     4.00000    -0.25526   0.
     4.00000    -0.33578   0.
     4.00000    -0.42436   0.
     4.00000    -0.52179   0.
     4.00000    -0.62897   0.
     4.00000    -0.74687   0.
     4.00000    -0.87656   0.
     4.00000    -1.01921   0.
     4.00000    -1.17614   0.
     4.00000    -1.34875   0.
     4.00000    -1.53862   0.
[...]
POINT_DATA      3686
CELL_DATA      3552
SCALARS Magnitude(ohm.m) double 1
LOOKUP_TABLE default
            86.14601            86.13090            86.13274            86.16547            86.24181            86.37370            86.57238            86.84322            87.17909            87.56415            87.97114            88.36744            88.71094            88.96180            89.08493            89.05498            88.86214            88.50889            88.01471            87.39989            86.69804            85.92866            85.11719            84.27083            83.39792            82.50291            81.58181            80.63421            79.66104            78.67296            77.67513            76.68794            75.71293            74.77447            73.87513            73.03375            72.25473            87.62018            87.66744            87.74517            87.86087            88.03471            88.28453            88.62673            89.07108            89.61440            90.23354            90.89251            91.53832            92.10958            92.54041            92.77791            92.78370            92.53872            92.05396            91.35351            90.48508            89.48869            88.41788            87.30325            86.16905            85.03148            83.89797            82.77076            81.64674            80.52752            79.41315            78.31598            77.23738            76.20139            75.20298            74.26239            73.38266            72.56986            88.78429            88.85602            88.96452            89.12128            89.35739            89.70784            90.20081            90.85247            91.65975            92.59564            93.60586            94.61222            95.51707            96.22022            96.63056            96.68562            96.36282            95.67390            94.67263            93.42495            92.01700            90.52104            89.00406            87.50838            86.05993            84.66789            83.33505            82.05697            80.82160            79.63161            78.47775            77.37272            76.30811            75.30202            74.35458            73.47655            72.66909            89.57263            89.66084            89.75397            89.88217            90.10952            90.49908            91.09956            91.94312            93.03531            94.34583            95.80308            97.29089            98.66112            99.74987           100.41446           100.55055           100.11562            99.14124            97.70983            95.94683            93.98153            91.94678            89.93602            88.02182            86.23684            84.59218            83.08585            81.69675            80.41154            79.20339            78.06920            76.99379            75.98119            75.02208            74.12834            73.29522            72.52915            89.99882            90.03842            90.04863            90.09329            90.26163            90.63761            91.29770            92.30033            93.67019            95.38622            97.35903            99.42976           101.37655           102.95509           103.93313           104.14835           103.54040           102.15620           100.14611            97.70206            95.04302            92.34927            89.77509            87.41029            85.29603            83.44326            81.82421            80.41112            79.15970            78.03800            77.00965            76.06059            75.16824            74.33595            73.54947            72.81701            72.14782            90.89368            90.87222            90.80767            90.76679            90.84061            91.13200            91.75069            92.79783            94.34224            96.38131            98.81759           101.43692           103.93283           105.94913           107.15511           107.31718           106.35197           104.35713           101.55376            98.25267            94.75666            91.33350            88.16996            85.37675            82.99890            81.02082            79.40257            78.07879            76.98832            76.06238            75.25745            74.52543            73.85275            73.21577            72.61211            72.04374            71.50914            92.17946            92.14813            92.03166            91.91379            91.92070            92.18844            92.85437            94.04130            95.82795            98.20625           101.04578           104.07589           106.90204           109.07102           110.16388           109.89906           108.21472           105.27563           101.42942            97.09416            92.68193            88.51705            84.82003            81.70011            79.18217            77.22695            75.75123            74.66592            73.86351            73.26798            72.79463            72.39455            72.02603            71.67032            71.32031            70.97187            70.63233            94.29841            94.22270            94.03008            93.86635            93.91034            94.32586            95.24320            96.75598            98.89980           101.61491           104.70882           107.84165           110.55374           112.32483           112.70647           111.43763           108.53332           104.28383            99.16408            93.71875            88.42159            83.63767            79.57177            76.31018            73.83950            72.07504            70.91167            70.20572            69.83938            69.68930            69.66620            69.69535            69.72590            69.72978            69.69540            69.62351            69.52234            98.93385            98.83482            98.63644            98.49220            98.58441            99.07148           100.07217           101.65899           103.83055           106.47858           109.34279           112.02018           113.98490           114.69777           113.72897           110.90657           106.39058           100.61949            94.21200            87.77283            81.81467            76.66619            72.49650            69.34054            67.12846            65.75102            65.04641            64.86299            65.04212            65.44768            65.96341            66.50375            67.00670            67.43707            67.78125            68.03930            68.22521           102.65123           102.70985           102.73768           102.81719           103.07870           103.65098           104.64253           106.11155           108.04291           110.28810           112.54037           114.33152           115.10623           114.33412           111.66516           107.08628           100.92471            93.78936            86.37271            79.31767            73.08594            67.94295            63.98948            61.18954            59.44129            58.58731            58.46139            58.88280            59.68359            60.70713            61.82545            62.93449            63.96298            64.87100            65.63808            66.26596            66.76651           105.26952           105.32584           105.32988           105.35834           105.53432           105.97577           106.76677           107.94118           109.43937           111.06180           112.45092           113.10961           112.48268           110.09551           105.74442            99.58127            92.11693            84.06568            76.16117            68.99144            62.93350            58.16295            54.69358            52.44705            51.28289            51.03780            51.52988            52.58374            54.02023            55.67919            57.41833            59.12047            60.70541            62.11808            63.33581            64.35963            65.20212           106.66504           106.50714           106.20776           105.92385           105.81511           105.99060           106.49598           107.30091           108.27201           109.14660           109.52040           108.88896           106.74754           102.74989            96.85766            89.42254            81.09264            72.63323            64.73485            57.88888            52.35328            48.19899            45.37616            43.76292            43.21288            43.55978            44.64225            46.28674            48.32382            50.59004            52.92988            55.21888            57.35649            59.27783            60.95544            62.38307            63.57892           106.86604           106.75758           106.53037           106.31546           106.23325           106.34018           106.62609           107.00850           107.30349           107.20388           106.28864           104.08436           100.19030            94.43842            87.02393            78.48562            69.57332            61.03545            53.45570            47.17648            42.32356            38.87262            36.71238            35.70663            35.70629            36.57051            38.15125            40.29830            42.85535            45.65436            48.54049            51.37184            54.03422            56.45208            58.58137            60.41452            61.96520           108.23680           108.52016           108.86898           109.24341           109.61636           109.93408           110.10872           109.99980           109.38531           107.94105           105.26210           100.96822            94.84849            87.00936            77.91367            68.28966            58.92188            50.46469            43.33224            37.69279            33.53487            30.74297            29.17105            28.66870            29.10452            30.35850            32.31392            34.84554            37.80978            41.05136            44.40551            47.71876            50.86156            53.73827            56.29707            58.51706            60.40954           109.56660           110.13650           111.07652           112.23641           113.44635           114.48935           115.09643           114.95232           113.69211           110.91479           106.26635            99.56189            90.92077            80.82433            70.04501            59.44367            49.76436            41.50025            34.86235            29.84298            26.30594            24.07153            22.96275            22.83465            23.57369            25.08836            27.29172            30.08476            33.34542            36.92363            40.65642            44.37726            47.93963            51.23233            54.18072            56.76124            58.97675           109.27254           110.30837           111.97056           114.01842           116.19650           118.15627           119.44371           119.51741           117.80909           113.82636           107.28894            98.28011            87.31780            75.27644            63.17529            51.93481            42.19144            34.24677            28.12424            23.66990            20.65824            18.86242            18.09587            18.22135            19.14724            20.80930            23.14979            26.09744            29.54938            33.37012            37.39261            41.44261            45.35862            49.00623            52.30370            55.20679            57.71148           101.68275           103.40475           106.09242           109.38020           112.91670           116.23033           118.69796           119.57632           118.10218           113.67387           106.07163            95.62019            83.18632            69.96747            57.17151            45.72905            36.16708            28.63352            23.00960            19.04390            16.45280            14.98720            14.45781            14.74066            15.76484            17.49107            19.88824            22.90823            26.47020            30.44827            34.68067            38.98594            43.18549            47.13487            50.72757            53.91018            56.67352            99.70121           100.77472           102.92180           105.94475           109.50318           113.08057           115.95837           117.24134           115.99101           111.46832           103.41861            92.27979            79.12905            65.37609            52.34502            40.96807            31.69218            24.55772            19.35666            15.77534            13.49878            12.26557            11.89044            12.26155            13.32497            15.06248            17.46368            20.50282            24.11566            28.18988            32.56755            37.06119            41.48377            45.66984            49.50364            52.91906            55.89278            99.39781           100.48705           102.69199           105.81469           109.49094           113.16872           116.07743           117.26211           115.73173           110.72289           102.02852            90.19522            76.44378            62.29684            49.12115            37.81690            28.75746            21.90878            16.99984            13.67851            11.60836            10.52155            10.23562            10.64777            11.71735            13.43975            15.82137            18.85160            22.48098            26.60808            31.07824            35.70342            40.28665            44.65377            48.67382            52.26919            55.41461           101.34140           102.95497           105.79610           109.50139           113.60722           117.48475           120.30456           121.07831           118.82541           112.86647           103.13073            90.32650            75.80277            61.14240            47.70046            36.32183            27.31452            20.58066            15.80634            12.60996            10.63951             9.62135             9.37297             9.79620            10.85607            12.55670            14.91337            17.92551            21.55432            25.70539            30.22976            34.93833            39.62940            44.12066            48.27265            51.99864            55.26402           107.75121           109.19807           111.82659           115.27532           119.07549           122.59410           124.99020           125.25607           122.40203           115.76010           105.31267            91.84255            76.76156            61.68241            47.95264            36.39546            27.28484            20.49830            15.70061            12.49457            10.51948             9.49591             9.23921             9.64972            10.69328            12.37523            14.71291            17.71012            21.33154            25.48869            30.03687            34.78678            39.53577            44.09744            48.32476            52.12784            55.46753           109.75297           110.74571           112.74068           115.52252           118.73784           121.84849           124.07986           124.44616           121.92660           115.77936           105.88326            92.90766            78.18278            63.28196            49.57009            37.91282            28.64059            21.67530            16.70844            13.35920            11.27075            10.16352             9.84882            10.22129            11.24065            12.90593            15.23095            18.21660            21.82715            25.97548            30.51772            35.26921            40.02829            44.60496            48.85373            52.67882            56.03681           111.02276           111.76599           113.25503           115.31516           117.67473           119.91514           121.41832           121.38606           118.96642           113.49040           104.74144            93.13919            79.69098            65.72633            52.51524            40.97114            31.54944            24.30001            19.01506            15.37157            13.04141            11.75272            11.31185            11.60397            12.57565            14.21402            16.52145            19.48903            23.07634            27.19298            31.69671            36.40617            41.12107            45.65711            49.86733            53.65621            56.98471           113.42940           114.46672           115.84160           117.30753           118.67164           119.66497           119.90333           118.89975           116.12253           111.11130           103.63068            93.80627            82.19232            69.69585            57.35227            46.07843            36.47965            28.80310            23.00494            18.86963            16.12448            14.51419            13.84204            13.97747            14.84774            16.42051            18.67910            21.60056            25.13276            29.17991            33.60025            38.21324            42.82634            47.26032            51.37166            55.06907            58.31005           129.40066           128.86338           128.00469           126.91297           125.60821           124.02332           122.01569           119.37803           115.84194           111.08806           104.80673            96.81140            87.17967            76.33060            64.99045            54.00816            44.12424            35.81314            29.24511            24.35666            20.95713            18.82314            17.75520            17.60355            18.27043            19.69509            21.83655            24.65013            28.06734            31.98465            36.25676            40.70813            45.15269            49.41650            53.36391            56.90815            60.00996           132.56684           132.44645           131.72643           130.38958           128.50390           126.14294           123.38926           120.30998           116.88831           112.96412           108.21977           102.26311            94.79756            85.81225            75.68767            65.13076            54.96469            45.88422            38.31240            32.38887            28.04946            25.12758            23.43351            22.80086            23.10062            24.23934            26.14441            28.74424            31.95130            35.64845            39.68794            43.89704            48.09407            52.11589            55.83418            59.16378            62.06812           132.24677           131.91301           130.77710           128.91807           126.54853           123.89031           121.15965           118.53722           116.09616           113.72256           111.07547           107.63294           102.83638            96.31267            88.07108            78.56803            68.58293            58.96837            50.41020            43.30878            37.79551            33.81702            31.22947            29.86685            29.57786            30.23656            31.73535            33.97212            36.83617            40.19654            43.89768            47.76760            51.63275