# vtk DataFile Version 3.0
Output from cR2
ASCII
DATASET UNSTRUCTURED_GRID
POINTS       2205 double
     0.00000     0.00000   0.
     0.00000    -0.14000   0.
     0.00000    -0.28000   0.
     0.00000    -0.41000   0.
     0.00000    -0.55000   0.
     0.00000    -0.69000   0.
     0.00000    -0.83000   0.
     0.00000    -0.96000   0.
     0.00000    -1.10000   0.
     0.00000    -1.24000   0.
     0.00000    -1.38000   0.
     0.00000    -1.51000   0.
     0.00000    -1.65000   0.
     0.00000    -1.73000   0.
     0.00000    -1.80000   0.
     0.00000    -1.88000   0.
     0.00000    -1.95000   0.
     0.00000    -2.03000   0.
     0.00000    -2.11000   0.
     0.00000    -2.18000   0.
     0.00000    -2.26000   0.
     0.00000    -2.34000   0.
     0.00000    -2.41000   0.
     0.00000    -2.49000   0.
     0.00000    -2.56000   0.
     0.00000    -2.64000   0.
     0.00000    -2.72000   0.
     0.00000    -2.79000   0.
     0.00000    -2.87000   0.
     0.00000    -2.95000   0.
     0.00000    -3.02000   0.
     0.00000    -3.10000   0.
     0.00000    -3.17000   0.
     0.00000    -3.25000   0.
     0.00000    -3.33000   0.
     0.00000    -3.40000   0.
     0.00000    -3.48000   0.
     0.00000    -3.55000   0.
     0.00000    -3.63000   0.
     0.00000    -3.71000   0.
     0.00000    -3.78000   0.
     0.00000    -3.86000   0.
     0.00000    -3.94000   0.
     0.00000    -4.01000   0.
     0.00000    -4.09000   0.
     0.00000    -4.16000   0.
     0.00000    -4.24000   0.
     0.00000    -4.32000   0.
     0.00000    -4.39000   0.
     0.00000    -4.47000   0.
     0.00000    -4.55000   0.
     0.00000    -4.62000   0.
     0.00000    -4.70000   0.
     0.00000    -4.77000   0.
     0.00000    -4.85000   0.
     0.00000    -4.93000   0.
     0.00000    -5.00000   0.
     0.00000    -5.08000   0.
     0.00000    -5.16000   0.
     0.00000    -5.23000   0.
     0.00000    -5.31000   0.
     0.00000    -5.38000   0.
     0.00000    -5.46000   0.
     0.00000    -5.54000   0.
     0.00000    -5.61000   0.
     0.00000    -5.69000   0.
     0.00000    -5.76000   0.
     0.00000    -5.84000   0.
     0.00000    -5.92000   0.
     0.00000    -5.99000   0.
     0.00000    -6.07000   0.
     0.00000    -6.15000   0.
     0.00000    -6.22000   0.
     0.00000    -6.30000   0.
     0.00000    -6.37000   0.
     0.00000    -6.45000   0.
     0.00000    -6.53000   0.
     0.00000    -6.60000   0.
     0.00000    -6.68000   0.
     0.00000    -6.76000   0.
     0.00000    -6.83000   0.
     0.00000    -6.91000   0.
     0.00000    -6.98000   0.
     0.00000    -7.06000   0.
     0.00000    -7.14000   0.
     0.00000    -7.21000   0.
     0.00000    -7.29000   0.
     0.00000    -7.36000   0.
     0.00000    -7.44000   0.
     0.00000    -7.52000   0.
     0.00000    -7.59000   0.
     0.00000    -7.67000   0.
     0.00000    -7.75000   0.
     0.00000    -7.82000   0.
     0.00000    -7.90000   0.
     0.00000    -7.97000   0.
     0.00000    -8.05000   0.
     0.00000    -8.13000   0.
     0.00000    -8.20000   0.
     0.00000    -8.28000   0.
     0.00000    -8.36000   0.
     0.00000    -8.43000   0.
     0.00000    -8.51000   0.
     0.00000    -8.58000   0.
     0.00000    -8.66000   0.
     0.20000     0.00000   0.
     0.20000    -0.14000   0.
     0.20000    -0.28000   0.
     0.20000    -0.41000   0.
     0.20000    -0.55000   0.
     0.20000    -0.69000   0.
     0.20000    -0.83000   0.
     0.20000    -0.96000   0.
     0.20000    -1.10000   0.
     0.20000    -1.24000   0.
     0.20000    -1.38000   0.
     0.20000    -1.51000   0.
     0.20000    -1.65000   0.
     0.20000    -1.73000   0.
     0.20000    -1.80000   0.
     0.20000    -1.88000   0.
     0.20000    -1.95000   0.
     0.20000    -2.03000   0.
     0.20000    -2.11000   0.
     0.20000    -2.18000   0.
     0.20000    -2.26000   0.
     0.20000    -2.34000   0.
     0.20000    -2.41000   0.
     0.20000    -2.49000   0.
     0.20000    -2.56000   0.
     0.20000    -2.64000   0.
     0.20000    -2.72000   0.
     0.20000    -2.79000   0.
     0.20000    -2.87000   0.
     0.20000    -2.95000   0.
     0.20000    -3.02000   0.
     0.20000    -3.10000   0.
     0.20000    -3.17000   0.
     0.20000    -3.25000   0.
     0.20000    -3.33000   0.
     0.20000    -3.40000   0.
     0.20000    -3.48000   0.
     0.20000    -3.55000   0.
     0.20000    -3.63000   0.
     0.20000    -3.71000   0.
     0.20000    -3.78000   0.
     0.20000    -3.86000   0.
     0.20000    -3.94000   0.
     0.20000    -4.01000   0.
     0.20000    -4.09000   0.
     0.20000    -4.16000   0.
     0.20000    -4.24000   0.
     0.20000    -4.32000   0.
     0.20000    -4.39000   0.
     0.20000    -4.47000   0.
     0.20000    -4.55000   0.
     0.20000    -4.62000   0.
     0.20000    -4.70000   0.
     0.20000    -4.77000   0.
     0.20000    -4.85000   0.
     0.20000    -4.93000   0.
     0.20000    -5.00000   0.
     0.20000    -5.08000   0.
     0.20000    -5.16000   0.
     0.20000    -5.23000   0.
     0.20000    -5.31000   0.
     0.20000    -5.38000   0.
     0.20000    -5.46000   0.
     0.20000    -5.54000   0.
     0.20000    -5.61000   0.
     0.20000    -5.69000   0.
     0.20000    -5.76000   0.
     0.20000    -5.84000   0.
     0.20000    -5.92000   0.
     0.20000    -5.99000   0.
     0.20000    -6.07000   0.
     0.20000    -6.15000   0.
     0.20000    -6.22000   0.
     0.20000    -6.30000   0.
     0.20000    -6.37000   0.
     0.20000    -6.45000   0.
     0.20000    -6.53000   0.
     0.20000    -6.60000   0.
     0.20000    -6.68000   0.
     0.20000    -6.76000   0.
     0.20000    -6.83000   0.
     0.20000    -6.91000   0.
     0.20000    -6.98000   0.
     0.20000    -7.06000   0.
     0.20000    -7.14000   0.
     0.20000    -7.21000   0.
     0.20000    -7.29000   0.
     0.20000    -7.36000   0.
     0.20000    -7.44000   0.
     0.20000    -7.52000   0.
     0.20000    -7.59000   0.
     0.20000    -7.67000   0.
     0.20000    -7.75000   0.
     0.20000    -7.82000   0.
     0.20000    -7.90000   0.
     0.20000    -7.97000   0.
     0.20000    -8.05000   0.
     0.20000    -8.13000   0.
     0.20000    -8.20000   0.
     0.20000    -8.28000   0.
     0.20000    -8.36000   0.
     0.20000    -8.43000   0.
     0.20000    -8.51000   0.
     0.20000    -8.58000   0.
     0.20000    -8.66000   0.
     0.40000     0.00000   0.
     0.40000    -0.14000   0.
     0.40000    -0.28000   0.
     0.40000    -0.41000   0.
     0.40000    -0.55000   0.
     0.40000    -0.69000   0.
     0.40000    -0.83000   0.
     0.40000    -0.96000   0.
     0.40000    -1.10000   0.
     0.40000    -1.24000   0.
     0.40000    -1.38000   0.
     0.40000    -1.51000   0.
     0.40000    -1.65000   0.
     0.40000    -1.73000   0.
     0.40000    -1.80000   0.
     0.40000    -1.88000   0.
     0.40000    -1.95000   0.
     0.40000    -2.03000   0.
     0.40000    -2.11000   0.
     0.40000    -2.18000   0.
     0.40000    -2.26000   0.
     0.40000    -2.34000   0.
     0.40000    -2.41000   0.
     0.40000    -2.49000   0.
     0.40000    -2.56000   0.
     0.40000    -2.64000   0.
     0.40000    -2.72000   0.
     0.40000    -2.79000   0.
     0.40000    -2.87000   0.
     0.40000    -2.95000   0.
     0.40000    -3.02000   0.
     0.40000    -3.10000   0.
     0.40000    -3.17000   0.
     0.40000    -3.25000   0.
     0.40000    -3.33000   0.
     0.40000    -3.40000   0.
     0.40000    -3.48000   0.
     0.40000    -3.55000   0.
     0.40000    -3.63000   0.
     0.40000    -3.71000   0.
     0.40000    -3.78000   0.
     0.40000    -3.86000   0.
     0.40000    -3.94000   0.
     0.40000    -4.01000   0.
     0.40000    -4.09000   0.
     0.40000    -4.16000   0.
     0.40000    -4.24000   0.
     0.40000    -4.32000   0.
     0.40000    -4.39000   0.
     0.40000    -4.47000   0.
     0.40000    -4.55000   0.
     0.40000    -4.62000   0.
     0.40000    -4.70000   0.
     0.40000    -4.77000   0.
     0.40000    -4.85000   0.
     0.40000    -4.93000   0.
     0.40000    -5.00000   0.
     0.40000    -5.08000   0.
     0.40000    -5.16000   0.
     0.40000    -5.23000   0.
     0.40000    -5.31000   0.
     0.40000    -5.38000   0.
     0.40000    -5.46000   0.
     0.40000    -5.54000   0.
     0.40000    -5.61000   0.
     0.40000    -5.69000   0.
     0.40000    -5.76000   0.
     0.40000    -5.84000   0.
     0.40000    -5.92000   0.
     0.40000    -5.99000   0.
     0.40000    -6.07000   0.
     0.40000    -6.15000   0.
     0.40000    -6.22000   0.
     0.40000    -6.30000   0.
     0.40000    -6.37000   0.
     0.40000    -6.45000   0.
     0.40000    -6.53000   0.
     0.40000    -6.60000   0.
     0.40000    -6.68000   0.
     0.40000    -6.76000   0.
     0.40000    -6.83000   0.
     0.40000    -6.91000   0.
     0.40000    -6.98000   0.
     0.40000    -7.06000   0.
     0.40000    -7.14000   0.
     0.40000    -7.21000   0.
     0.40000    -7.29000   0.
     0.40000    -7.36000   0.
     0.40000    -7.44000   0.
     0.40000    -7.52000   0.
     0.40000    -7.59000   0.
     0.40000    -7.67000   0.
     0.40000    -7.75000   0.
     0.40000    -7.82000   0.
     0.40000    -7.90000   0.
     0.40000    -7.97000   0.
     0.40000    -8.05000   0.
     0.40000    -8.13000   0.
     0.40000    -8.20000   0.
     0.40000    -8.28000   0.
     0.40000    -8.36000   0.
     0.40000    -8.43000   0.
     0.40000    -8.51000   0.
     0.40000    -8.58000   0.
     0.40000    -8.66000   0.
     0.59000     0.00000   0.
     0.59000    -0.14000   0.
     0.59000    -0.28000   0.
     0.59000    -0.41000   0.
[...]
POINT_DATA      2205
CELL_DATA      2080
SCALARS Magnitude(ohm.m) double 1
LOOKUP_TABLE default
            20.83431            20.83431            20.83431            20.83431            20.83431            20.83431            20.83431            20.83431            20.88278            20.88278            20.88278            20.88278            20.88278            20.88278            20.88278            20.88278            20.77763            20.77763            20.77763            20.77763            20.77763            20.77763            20.52273            20.52273            20.52273            20.52273            20.52273            20.52273            20.23049            20.23049            20.23049            20.23049            20.23049            20.23049            19.97409            19.97409            19.97409            19.97409            19.97409            19.97409            20.11414            20.11414            20.11414            20.11414            20.11414            20.11414            19.71318            19.71318            19.71318            19.71318            19.71318            19.71318            19.35938            19.35938            19.35938            19.35938            19.35938            19.35938            20.10119            20.10119            20.10119            20.10119            20.10119            20.10119            19.59730            19.59730            19.59730            19.59730            19.59730            19.59730            17.47387            17.47387            17.47387            17.47387            17.47387            17.47387            17.47387            16.95498            16.95498            16.95498            16.95498            16.95498            16.95498            16.95498            17.16457            17.16457            17.16457            17.16457            17.16457            17.16457            17.16457            20.44445            20.44445            20.44445            20.44445            20.44445            20.44445            20.44445            20.71166            20.71166            20.71166            20.71166            20.71166            20.71166            20.99023            20.99023            20.99023            20.99023            20.99023            20.99023            20.99023            20.99023            21.10634            21.10634            21.10634            21.10634            21.10634            21.10634            21.10634            21.10634            21.01017            21.01017            21.01017            21.01017            21.01017            21.01017            20.74800            20.74800            20.74800            20.74800            20.74800            20.74800            20.44128            20.44128            20.44128            20.44128            20.44128            20.44128            19.97681            19.97681            19.97681            19.97681            19.97681            19.97681            19.95846            19.95846            19.95846            19.95846            19.95846            19.95846            20.23257            20.23257            20.23257            20.23257            20.23257            20.23257            20.02402            20.02402            20.02402            20.02402            20.02402            20.02402            20.62655            20.62655            20.62655            20.62655            20.62655            20.62655            21.00130            21.00130            21.00130            21.00130            21.00130            21.00130            19.52439            19.52439            19.52439            19.52439            19.52439            19.52439            19.52439            17.44185            17.44185            17.44185            17.44185            17.44185            17.44185            17.44185            16.93428            16.93428            16.93428            16.93428            16.93428            16.93428            16.93428            19.33469            19.33469            19.33469            19.33469            19.33469            19.33469            19.33469            20.64781            20.64781            20.64781            20.64781            20.64781            20.64781            21.19252            21.19252            21.19252            21.19252            21.19252            21.19252            21.19252            21.19252            21.28193            21.28193            21.28193            21.28193            21.28193            21.28193            21.28193            21.28193            21.12374            21.12374            21.12374            21.12374            21.12374            21.12374            20.75511            20.75511            20.75511            20.75511            20.75511            20.75511            20.33931            20.33931            20.33931            20.33931            20.33931            20.33931            19.85303            19.85303            19.85303            19.85303            19.85303            19.85303            19.74055            19.74055            19.74055            19.74055            19.74055            19.74055            20.02493            20.02493            20.02493            20.02493            20.02493            20.02493            20.04526            20.04526            20.04526            20.04526            20.04526            20.04526            20.72309            20.72309            20.72309            20.72309            20.72309            20.72309            21.81923            21.81923            21.81923            21.81923            21.81923            21.81923            21.15822            21.15822            21.15822            21.15822            21.15822            21.15822            21.15822            18.86502            18.86502            18.86502            18.86502            18.86502            18.86502            18.86502            17.82635            17.82635            17.82635            17.82635            17.82635            17.82635            17.82635            19.23299            19.23299            19.23299            19.23299            19.23299            19.23299            19.23299            20.45619            20.45619            20.45619            20.45619            20.45619            20.45619            21.42510            21.42510            21.42510            21.42510            21.42510            21.42510            21.42510            21.42510            21.49353            21.49353            21.49353            21.49353            21.49353            21.49353            21.49353            21.49353            21.19366            21.19366            21.19366            21.19366            21.19366            21.19366            20.69713            20.69713            20.69713            20.69713            20.69713            20.69713            20.18228            20.18228            20.18228            20.18228            20.18228            20.18228            19.68702            19.68702            19.68702            19.68702            19.68702            19.68702            19.52476            19.52476            19.52476            19.52476            19.52476            19.52476            19.70787            19.70787            19.70787            19.70787            19.70787            19.70787            19.85315            19.85315            19.85315            19.85315            19.85315            19.85315            20.62877            20.62877            20.62877            20.62877            20.62877            20.62877            21.96849            21.96849            21.96849            21.96849            21.96849            21.96849            21.84340            21.84340            21.84340            21.84340            21.84340            21.84340            21.84340            19.71764            19.71764            19.71764            19.71764            19.71764            19.71764            19.71764            18.28380            18.28380            18.28380            18.28380            18.28380            18.28380            18.28380            18.97618            18.97618            18.97618            18.97618            18.97618            18.97618            18.97618            20.24022            20.24022            20.24022            20.24022            20.24022            20.24022            21.69452            21.69452            21.69452            21.69452            21.69452            21.69452            21.69452            21.69452            21.80135            21.80135            21.80135            21.80135            21.80135            21.80135            21.80135            21.80135             0.37531             0.37531             0.37531             0.37531             0.37531             0.37531             0.37935             0.37935             0.37935             0.37935             0.37935             0.37935             0.38700             0.38700             0.38700             0.38700             0.38700             0.38700             0.39611             0.39611             0.39611             0.39611             0.39611             0.39611             0.40237             0.40237             0.40237             0.40237             0.40237             0.40237             0.39550             0.39550             0.39550             0.39550             0.39550             0.39550             0.36604             0.36604             0.36604             0.36604             0.36604             0.36604             0.32173             0.32173             0.32173             0.32173             0.32173             0.32173             0.27144             0.27144             0.27144             0.27144             0.27144             0.27144             0.21851             0.21851             0.21851             0.21851             0.21851             0.21851             0.21851             0.16461             0.16461             0.16461             0.16461             0.16461             0.16461             0.16461             0.12382             0.12382             0.12382             0.12382             0.12382             0.12382             0.12382             0.10588             0.10588             0.10588             0.10588             0.10588             0.10588             0.10588            20.08712            20.08712            20.08712            20.08712            20.08712            20.08712            21.94603            21.94603            21.94603            21.94603            21.94603            21.94603            21.94603            21.94603            22.05426            22.05426            22.05426            22.05426            22.05426            22.05426            22.05426            22.05426             0.37131             0.37131             0.37131             0.37131             0.37131             0.37131             0.37398             0.37398             0.37398             0.37398             0.37398             0.37398             0.37877             0.37877             0.37877             0.37877             0.37877             0.37877             0.38493             0.38493             0.38493             0.38493             0.38493             0.38493             0.38859             0.38859             0.38859             0.38859             0.38859             0.38859             0.37947             0.37947             0.37947             0.37947             0.37947             0.37947             0.34938             0.34938             0.34938             0.34938             0.34938             0.34938             0.30594             0.30594             0.30594             0.30594             0.30594             0.30594             0.25838             0.25838             0.25838             0.25838             0.25838             0.25838             0.21150             0.21150             0.21150             0.21150             0.21150             0.21150             0.21150             0.16111             0.16111             0.16111             0.16111             0.16111             0.16111             0.16111             0.11752             0.11752             0.11752             0.11752             0.11752             0.11752             0.11752             0.09680             0.09680             0.09680             0.09680             0.09680             0.09680             0.09680            19.88174            19.88174            19.88174            19.88174            19.88174            19.88174            22.16718            22.16718            22.16718            22.16718            22.16718            22.16718            22.16718            22.16718            22.28591            22.28591            22.28591            22.28591            22.28591            22.28591            22.28591            22.28591             0.36705             0.36705             0.36705             0.36705             0.36705             0.36705             0.36771             0.36771             0.36771             0.36771             0.36771             0.36771             0.36972             0.36972             0.36972             0.36972             0.36972             0.36972             0.37286             0.37286             0.37286             0.37286             0.37286             0.37286             0.37422             0.37422             0.37422             0.37422             0.37422             0.37422             0.36338             0.36338             0.36338             0.36338             0.36338             0.36338             0.33192             0.33192             0.33192             0.33192             0.33192             0.33192             0.28945             0.28945             0.28945             0.28945             0.28945             0.28945             0.24479             0.24479             0.24479             0.24479             0.24479             0.24479             0.20659             0.20659             0.20659             0.20659             0.20659             0.20659             0.20659             0.16048             0.16048             0.16048             0.16048             0.16048             0.16048             0.16048             0.11111             0.11111             0.11111             0.11111             0.11111             0.11111             0.11111             0.08552             0.08552             0.08552             0.08552             0.08552             0.08552             0.08552            19.68391            19.68391            19.68391            19.68391            19.68391            19.68391            22.35480            22.35480            22.35480            22.35480            22.35480            22.35480            22.35480            22.35480            22.50993            22.50993            22.50993            22.50993            22.50993            22.50993            22.50993            22.50993             0.36476             0.36476             0.36476             0.36476             0.36476             0.36476             0.36422             0.36422             0.36422             0.36422             0.36422             0.36422             0.36501             0.36501             0.36501             0.36501             0.36501             0.36501             0.36708             0.36708             0.36708             0.36708             0.36708             0.36708             0.36830             0.36830             0.36830             0.36830             0.36830             0.36830             0.35745             0.35745             0.35745             0.35745             0.35745             0.35745             0.32555             0.32555             0.32555             0.32555             0.32555             0.32555             0.28369             0.28369             0.28369             0.28369             0.28369             0.28369             0.24047             0.24047             0.24047             0.24047             0.24047             0.24047             0.21635             0.21635             0.21635             0.21635             0.21635             0.21635             0.21635             0.17276             0.17276             0.17276             0.17276             0.17276             0.17276             0.17276             0.11074             0.11074             0.11074             0.11074             0.11074             0.11074             0.11074             0.07616             0.07616             0.07616             0.07616             0.07616             0.07616             0.07616            19.49715            19.49715            19.49715            19.49715            19.49715            19.49715            22.48754            22.48754            22.48754            22.48754            22.48754            22.48754            22.48754            22.48754            22.74320            22.74320            22.74320            22.74320            22.74320            22.74320            22.74320            22.74320            23.22773            23.22773            23.22773            23.22773            23.22773            23.22773            23.42199            23.42199            23.42199            23.42199            23.42199            23.42199            23.35011            23.35011            23.35011            23.35011            23.35011            23.35011            23.15390            23.15390            23.15390            23.15390            23.15390            23.15390            23.67576            23.67576            23.67576            23.67576            23.67576            23.67576            24.38447            24.38447            24.38447            24.38447            24.38447            24.38447            25.48991            25.48991            25.48991            25.48991            25.48991            25.48991            26.25630            26.25630            26.25630            26.25630            26.25630            26.25630            26.13770            26.13770            26.13770            26.13770            26.13770            26.13770             0.25766             0.25766             0.25766             0.25766             0.25766             0.25766             0.25766             0.21073             0.21073             0.21073             0.21073             0.21073             0.21073             0.21073             0.12140             0.12140             0.12140             0.12140             0.12140             0.12140             0.12140             0.07122             0.07122             0.07122             0.07122             0.07122             0.07122             0.07122            19.33714            19.33714            19.33714            19.33714            19.33714            19.33714            22.51965            22.51965            22.51965            22.51965            22.51965            22.51965            22.51965            22.51965            22.66810            22.66810            22.66810            22.66810            22.66810            22.66810            22.66810            22.66810            22.94732            22.94732            22.94732            22.94732            22.94732            22.94732            23.39360            23.39360            23.39360            23.39360            23.39360            23.39360            23.65254            23.65254            23.65254            23.65254            23.65254            23.65254            22.90749            22.90749            22.90749            22.90749            22.90749            22.90749            22.72372            22.72372            22.72372            22.72372            22.72372            22.72372            20.82621            20.82621            20.82621            20.82621            20.82621            20.82621            21.74045            21.74045            21.74045            21.74045            21.74045            21.74045            22.17320