# vtk DataFile Version 3.0
Output from cR2
ASCII
DATASET UNSTRUCTURED_GRID
POINTS       1114 double
   -10.00000     0.00000   0.
     0.00000     0.00000   0.
     2.00000     0.00000   0.
     4.00000     0.00000   0.
     6.00000     0.00000   0.
     8.00000     0.00000   0.
    10.00000     0.00000   0.
    12.00000     0.00000   0.
    14.00000     0.00000   0.
    16.00000     0.00000   0.
    18.00000     0.00000   0.
    20.00000     0.00000   0.
    22.00000     0.00000   0.
    24.00000     0.00000   0.
    26.00000     0.00000   0.
    28.00000     0.00000   0.
    30.00000     0.00000   0.
    32.00000     0.00000   0.
    34.00000     0.00000   0.
    36.00000     0.00000   0.
    38.00000     0.00000   0.
    40.00000     0.00000   0.
    42.00000     0.00000   0.
    44.00000     0.00000   0.
    46.00000     0.00000   0.
    56.00000     0.00000   0.
   -10.00000   -15.33000   0.
    -0.57000   -15.33000   0.
     8.86000   -15.33000   0.
    18.29000   -15.33000   0.
    27.71000   -15.33000   0.
    37.14000   -15.33000   0.
    46.57000   -15.33000   0.
    56.00000   -15.33000   0.
  -240.00000     0.00000   0.
  -240.00000  -153.33000   0.
   286.00000     0.00000   0.
   286.00000  -153.33000   0.
    -9.00000     0.00000   0.
    -8.00000     0.00000   0.
    -7.00000     0.00000   0.
    -6.00000     0.00000   0.
    -5.00000     0.00000   0.
    -4.00000     0.00000   0.
    -3.00000     0.00000   0.
    -2.00000     0.00000   0.
    -1.00000     0.00000   0.
     1.00000     0.00000   0.
     3.00000     0.00000   0.
     5.00000     0.00000   0.
     7.00000     0.00000   0.
     9.00000     0.00000   0.
    11.00000     0.00000   0.
    13.00000     0.00000   0.
    15.00000     0.00000   0.
    17.00000     0.00000   0.
    19.00000     0.00000   0.
    21.00000     0.00000   0.
    23.00000     0.00000   0.
    25.00000     0.00000   0.
    27.00000     0.00000   0.
    29.00000     0.00000   0.
    31.00000     0.00000   0.
    33.00000     0.00000   0.
    35.00000     0.00000   0.
    37.00000     0.00000   0.
    39.00000     0.00000   0.
    41.00000     0.00000   0.
    43.00000     0.00000   0.
    45.00000     0.00000   0.
    47.00000     0.00000   0.
    48.00000     0.00000   0.
    49.00000     0.00000   0.
    50.00000     0.00000   0.
    51.00000     0.00000   0.
    52.00000     0.00000   0.
    53.00000     0.00000   0.
    54.00000     0.00000   0.
    55.00000     0.00000   0.
    -8.11400   -15.33000   0.
    -6.22800   -15.33000   0.
    -4.34200   -15.33000   0.
    -2.45600   -15.33000   0.
     1.31600   -15.33000   0.
     3.20200   -15.33000   0.
     5.08800   -15.33000   0.
     6.97400   -15.33000   0.
    10.74600   -15.33000   0.
    12.63200   -15.33000   0.
    14.51800   -15.33000   0.
    16.40400   -15.33000   0.
    20.17400   -15.33000   0.
    22.05800   -15.33000   0.
    23.94200   -15.33000   0.
    25.82600   -15.33000   0.
    29.59600   -15.33000   0.
    31.48200   -15.33000   0.
    33.36800   -15.33000   0.
    35.25400   -15.33000   0.
    39.02600   -15.33000   0.
    40.91200   -15.33000   0.
    42.79800   -15.33000   0.
    44.68400   -15.33000   0.
    48.45600   -15.33000   0.
    50.34200   -15.33000   0.
    52.22800   -15.33000   0.
    54.11400   -15.33000   0.
   -10.00000    -0.99708   0.
   -10.00000    -2.05901   0.
   -10.00000    -3.19001   0.
   -10.00000    -4.39457   0.
   -10.00000    -5.67748   0.
   -10.00000    -7.04383   0.
   -10.00000    -8.49905   0.
   -10.00000   -10.04892   0.
   -10.00000   -11.69959   0.
   -10.00000   -13.45762   0.
    56.00000    -0.99708   0.
    56.00000    -2.05901   0.
    56.00000    -3.19001   0.
    56.00000    -4.39457   0.
    56.00000    -5.67748   0.
    56.00000    -7.04383   0.
    56.00000    -8.49905   0.
    56.00000   -10.04892   0.
    56.00000   -11.69959   0.
    56.00000   -13.45762   0.
   -11.07314     0.00000   0.
   -12.39163     0.00000   0.
   -14.01155     0.00000   0.
   -16.00183     0.00000   0.
   -18.44714     0.00000   0.
   -21.45152     0.00000   0.
   -25.14276     0.00000   0.
   -29.67792     0.00000   0.
   -35.24993     0.00000   0.
   -42.09584     0.00000   0.
   -50.50691     0.00000   0.
   -60.84095     0.00000   0.
   -73.53762     0.00000   0.
   -89.13707     0.00000   0.
  -108.30296     0.00000   0.
  -131.85064     0.00000   0.
  -160.78193     0.00000   0.
  -196.32764     0.00000   0.
  -240.00000   -38.33250   0.
  -240.00000   -76.66500   0.
  -240.00000  -114.99750   0.
  -192.18182  -153.33000   0.
  -144.36364  -153.33000   0.
   -96.54545  -153.33000   0.
   -48.72727  -153.33000   0.
    -0.90909  -153.33000   0.
    46.90909  -153.33000   0.
    94.72727  -153.33000   0.
   142.54545  -153.33000   0.
   190.36364  -153.33000   0.
   238.18182  -153.33000   0.
   286.00000  -114.99750   0.
   286.00000   -76.66500   0.
   286.00000   -38.33250   0.
   242.32764     0.00000   0.
   206.78193     0.00000   0.
   177.85064     0.00000   0.
   154.30296     0.00000   0.
   135.13707     0.00000   0.
   119.53762     0.00000   0.
   106.84095     0.00000   0.
    96.50691     0.00000   0.
    88.09584     0.00000   0.
    81.24993     0.00000   0.
    75.67792     0.00000   0.
    71.14276     0.00000   0.
    67.45152     0.00000   0.
    64.44714     0.00000   0.
    62.00183     0.00000   0.
    60.01155     0.00000   0.
    58.39163     0.00000   0.
    57.07314     0.00000   0.
   -55.67393    -8.11687   0.
   102.28556    -9.27923   0.
    78.79609    -4.45141   0.
   -32.38552    -4.35143   0.
    57.49107   -12.57967   0.
   -12.06649   -12.70662   0.
    57.22177    -7.77144   0.
   -11.22177    -7.77144   0.
    23.00000   -16.96159   0.
    36.19700   -16.96332   0.
     9.80300   -16.96332   0.
     0.18440   -16.79514   0.
    -8.92655   -17.17913   0.
    45.68593   -17.01836   0.
    54.89378   -17.20285   0.
    65.94933    -2.35978   0.
   -20.15557    -2.15830   0.
   126.00797   -11.50124   0.
   166.16437   -20.57749   0.
   -80.96409   -12.45188   0.
  -119.69554   -19.97774   0.
   -11.01133    -3.79229   0.
    56.97411    -3.79022   0.
    61.00669    -1.56327   0.
   -14.92933    -1.39375   0.
   -29.87691  -104.55197   0.
    78.40147  -116.46749   0.
   224.71946   -27.45194   0.
  -178.71946   -27.45194   0.
  -120.45455  -111.91824   0.
   171.86855  -114.54125   0.
    57.76192    -0.97724   0.
   -11.72931    -0.94523   0.
  -206.53934   -93.27621   0.
   252.93831   -91.41848   0.
    24.06253  -114.40300   0.
    47.68652   -86.07672   0.
   113.46612  -114.90328   0.
   136.11597   -82.93205   0.
    92.23618   -84.75991   0.
   -64.55365  -113.77869   0.
   -50.91354   -88.01881   0.
   -12.50652   -78.21690   0.
   -33.34436   -57.60158   0.
   -92.05130   -79.52294   0.
   -27.33364    -3.71786   0.
   -29.25204    -8.78058   0.
   -35.05368    -9.56553   0.
   -30.83882   -14.21991   0.
   -37.54700   -16.21282   0.
   -24.88996   -12.41649   0.
   -26.45496   -18.67387   0.
   -20.22698   -16.64491   0.
   -21.68685   -23.44843   0.
   -28.96898   -25.51611   0.
   -11.63829   -17.22674   0.
    -9.80650   -19.87325   0.
    -5.40416   -17.25925   0.
   -22.49237   -31.64529   0.
   -19.67141   -11.36737   0.
   -31.98210   -34.30335   0.
   -13.12542   -19.56836   0.
   -11.29042   -23.42638   0.
    -6.48151   -22.72611   0.
    -8.78822   -28.80807   0.
   -22.20649    -8.38025   0.
   -18.28647    -7.76623   0.
   -15.73340   -10.09239   0.
   -16.54231   -13.54146   0.
   -15.33160    -6.89814   0.
   -42.32010    -9.56120   0.
   -45.82711   -18.74419   0.
   -57.20812   -18.69383   0.
   -49.94402   -29.58437   0.
   -64.03276   -32.91247   0.
   -50.37050   -44.95665   0.
   -70.39077   -48.97190   0.
   -17.05843    -4.90723   0.
   -14.60909    -4.63994   0.
   -25.51680   -42.40737   0.
   -12.93818    -6.09354   0.
   -13.30726    -8.24946   0.
   -12.21167   -14.95923   0.
   -13.52314   -36.92193   0.
   -16.80555   -50.41824   0.
    -5.00113   -45.06595   0.
   -11.79270    -9.60197   0.
   -82.75607   -31.02213   0.
    -5.36844   -57.96237   0.
     6.94900   -50.73035   0.
     9.44840   -37.78518   0.
    18.89504   -43.98140   0.
    21.46399   -35.34783   0.
    28.80063   -38.83051   0.
    15.41651   -16.97166   0.
    30.83558   -31.65697   0.
    37.58026   -35.47569   0.
    28.65300   -16.96246   0.
    38.27308   -45.54499   0.
    46.01912   -38.99553   0.
    46.83697   -31.72818   0.
    54.44951   -34.44375   0.
    56.58201   -44.41463   0.
    65.35739   -34.78620   0.
    12.48367   -29.85802   0.
    -2.62608   -27.23539   0.
    68.19727   -49.68305   0.
    78.63635   -40.34374   0.
    77.13601   -28.38769   0.
    89.17217   -30.61522   0.
    92.47409   -45.49516   0.
    22.53554   -25.57876   0.
   103.75042   -33.51771   0.
    20.71114   -60.15450   0.
    62.89270   -26.94109   0.
    68.18513   -17.52913   0.
    84.98670   -18.15346   0.
   109.53962   -51.42484   0.
   123.44260   -37.25318   0.
    57.91833   -56.77421   0.
    38.59058   -27.48297   0.
    31.54137   -23.42990   0.
    32.64133   -17.21687   0.
    73.41034    -4.51851   0.
    76.09203    -8.90146   0.
    70.74555    -9.12573   0.
    -1.28452   -22.52625   0.
     2.62815   -25.42811   0.
     2.26732   -31.78488   0.
     2.91002   -20.59937   0.
     6.32032   -22.51081   0.
     6.02113   -16.91260   0.
    82.60321    -9.57760   0.
  -146.96572   -24.23083   0.
  -160.66669   -51.38530   0.
  -127.64255   -44.63087   0.
  -192.30547   -56.59421   0.
  -143.26696   -77.49643   0.
  -170.68541  -114.10856   0.
   193.04385   -24.33078   0.
[...]
POINT_DATA      1114
CELL_DATA      2103
SCALARS Magnitude(ohm.m) double 1
LOOKUP_TABLE default
           100.00000            10.00000           100.00000           100.00000           100.00000           250.00000           250.00000           100.00000           100.00000           100.00000           100.00000           100.00000           100.00000           100.00000           100.00000           100.00000           100.00000           100.00000           100.00000           100.00000           250.00000           100.00000           100.00000           100.00000           100.00000           250.00000           100.00000           100.00000            10.00000           250.00000           100.00000           100.00000            10.00000           100.00000           100.00000            10.00000           100.00000           100.00000           100.00000           250.00000           250.00000           100.00000           250.00000           250.00000           100.00000           250.00000            10.00000           250.00000           100.00000           250.00000           100.00000           250.00000           100.00000           100.00000           100.00000           100.00000           100.00000           100.00000           100.00000           100.00000           100.00000           100.00000           100.00000           100.00000           250.00000           100.00000           100.00000           100.00000           250.00000           250.00000           100.00000           100.00000           100.00000           100.00000           100.00000           100.00000           100.00000           100.00000           100.00000            10.00000           100.00000           100.00000           100.00000           100.00000           100.00000           100.00000           100.00000           100.00000           250.00000           100.00000           250.00000           250.00000           100.00000           100.00000           250.00000           100.00000           100.00000           100.00000           100.00000           100.00000           250.00000            10.00000           100.00000           100.00000           250.00000           250.00000           250.00000           100.00000            10.00000           100.00000            10.00000           100.00000           100.00000           100.00000           250.00000           100.00000           100.00000           100.00000           100.00000           100.00000           250.00000           100.00000           250.00000           100.00000           100.00000           100.00000            10.00000           100.00000           100.00000           250.00000           250.00000           100.00000           100.00000           100.00000           250.00000           100.00000           250.00000           100.00000           100.00000           250.00000           100.00000           100.00000           250.00000           100.00000           100.00000           100.00000           100.00000           100.00000           250.00000           100.00000           100.00000           250.00000            10.00000           100.00000           100.00000           100.00000           100.00000           100.00000           100.00000           100.00000           100.00000           100.00000           100.00000           100.00000            10.00000           100.00000           250.00000           100.00000           100.00000            10.00000           100.00000           100.00000            10.00000           100.00000           100.00000           100.00000           100.00000           100.00000           100.00000           100.00000           100.00000           100.00000           250.00000           100.00000           100.00000           100.00000           100.00000           100.00000           100.00000           100.00000           100.00000           100.00000           250.00000           100.00000           250.00000           100.00000           100.00000            10.00000           100.00000           100.00000           100.00000           100.00000           100.00000           100.00000           100.00000           100.00000           250.00000           100.00000           250.00000           250.00000            10.00000           100.00000           100.00000           100.00000           100.00000           100.00000           100.00000           250.00000           250.00000           100.00000           250.00000           250.00000           250.00000           100.00000           250.00000           250.00000           250.00000           100.00000           100.00000           250.00000           100.00000           100.00000           250.00000            10.00000           100.00000           250.00000           250.00000           250.00000           250.00000           100.00000           100.00000           100.00000           100.00000           100.00000           100.00000           100.00000           250.00000           100.00000           250.00000           100.00000            10.00000           100.00000           100.00000            10.00000           100.00000           250.00000           100.00000           100.00000           100.00000           100.00000           250.00000           100.00000           100.00000           100.00000           100.00000           250.00000           250.00000           100.00000           250.00000           100.00000           250.00000           100.00000           100.00000           100.00000           100.00000           100.00000           100.00000           100.00000           100.00000           250.00000           250.00000           100.00000           100.00000           250.00000           250.00000           250.00000           100.00000           100.00000           100.00000           250.00000           250.00000           250.00000           100.00000           100.00000           250.00000            10.00000           100.00000           100.00000           100.00000           100.00000           100.00000           100.00000           250.00000           250.00000           100.00000           250.00000           250.00000            10.00000           100.00000           100.00000           100.00000            10.00000           100.00000           100.00000           100.00000           100.00000           100.00000            10.00000           100.00000           100.00000           100.00000           100.00000           100.00000            10.00000           100.00000           100.00000           250.00000           100.00000           100.00000           100.00000           250.00000           250.00000           100.00000           250.00000           100.00000           100.00000            10.00000           250.00000           100.00000           100.00000           250.00000           250.00000            10.00000           250.00000           100.00000           100.00000           100.00000           100.00000           100.00000            10.00000           250.00000           250.00000           100.00000           100.00000           100.00000           100.00000           100.00000            10.00000           250.00000           100.00000            10.00000           100.00000           100.00000           100.00000           100.00000           100.00000           100.00000           100.00000            10.00000           100.00000           100.00000            10.00000           100.00000           250.00000           250.00000           250.00000           250.00000           250.00000           100.00000           100.00000           100.00000           100.00000           100.00000           100.00000           100.00000           100.00000           250.00000           250.00000           250.00000           100.00000           100.00000           250.00000           250.00000           100.00000           100.00000           100.00000           250.00000           250.00000           250.00000           100.00000           100.00000           250.00000           250.00000           250.00000           250.00000           100.00000           100.00000           100.00000           100.00000           250.00000           250.00000           100.00000            10.00000           250.00000           250.00000           100.00000           100.00000           100.00000           100.00000           100.00000            10.00000           100.00000           100.00000           100.00000           100.00000           100.00000           250.00000           100.00000           100.00000           100.00000           100.00000           100.00000           100.00000           100.00000           100.00000           100.00000           250.00000           100.00000           100.00000           100.00000           100.00000           250.00000           100.00000           250.00000           250.00000            10.00000           250.00000           250.00000           100.00000           250.00000           100.00000            10.00000           100.00000            10.00000           100.00000           100.00000           100.00000            10.00000           100.00000           100.00000           100.00000           100.00000           100.00000           100.00000           100.00000           100.00000           100.00000           100.00000           100.00000           100.00000           100.00000           100.00000           100.00000           100.00000           100.00000           100.00000           100.00000           100.00000           100.00000           100.00000           100.00000           100.00000           100.00000           100.00000           100.00000           100.00000           100.00000            10.00000           100.00000           100.00000           100.00000           100.00000           100.00000           100.00000           250.00000           100.00000           100.00000           100.00000           100.00000           100.00000            10.00000           100.00000           100.00000           100.00000            10.00000           100.00000           100.00000           100.00000           100.00000           100.00000           100.00000           100.00000           100.00000           100.00000           250.00000           100.00000           100.00000           100.00000           100.00000           100.00000           100.00000           100.00000           100.00000           100.00000           100.00000           100.00000           100.00000           100.00000           100.00000           100.00000           250.00000           100.00000           100.00000           100.00000            10.00000           100.00000           100.00000           250.00000           100.00000           100.00000           100.00000           100.00000            10.00000           100.00000           100.00000           100.00000           100.00000           100.00000           250.00000           100.00000           100.00000           100.00000           250.00000           100.00000           100.00000           100.00000           100.00000           100.00000           100.00000           100.00000           100.00000           100.00000           100.00000            10.00000           250.00000           100.00000           100.00000           100.00000           100.00000           100.00000           100.00000           100.00000           100.00000           250.00000           100.00000           250.00000           100.00000           100.00000           100.00000           100.00000           100.00000           100.00000           100.00000           100.00000           100.00000           100.00000           100.00000           100.00000           100.00000           100.00000           100.00000           100.00000           100.00000           100.00000           100.00000            10.00000           100.00000           100.00000           100.00000           100.00000           100.00000           100.00000           250.00000           100.00000           250.00000           100.00000           250.00000           100.00000            10.00000           100.00000           100.00000           100.00000           100.00000           100.00000           100.00000           100.00000           100.00000            10.00000           100.00000           100.00000           100.00000           100.00000           100.00000           100.00000           100.00000           100.00000           100.00000           100.00000           100.00000           100.00000           100.00000           100.00000           100.00000           100.00000           100.00000           250.00000           100.00000           100.00000           100.00000           100.00000           100.00000           100.00000           250.00000           100.00000           250.00000           100.00000           100.00000           250.00000           100.00000           100.00000           100.00000           100.00000            10.00000           100.00000           100.00000           100.00000           100.00000           100.00000           100.00000           100.00000           100.00000           100.00000           100.00000           100.00000           100.00000           100.00000           100.00000           100.00000           100.00000           100.00000           100.00000           100.00000           100.00000           100.00000           100.00000           100.00000           100.00000           100.00000           100.00000           100.00000           100.00000           100.00000           100.00000           100.00000           100.00000           100.00000           100.00000           100.00000           100.00000           100.00000            10.00000           100.00000           100.00000           100.00000           100.00000           100.00000           100.00000           100.00000           100.00000           100.00000           100.00000           100.00000            10.00000           250.00000           250.00000           100.00000           100.00000           100.00000           100.00000           100.00000           100.00000           100.00000           100.00000           100.00000           100.00000           100.00000           100.00000           100.00000           100.00000           100.00000           100.00000           250.00000           250.00000           100.00000           100.00000           100.00000           100.00000           100.00000            10.00000           100.00000           100.00000           100.00000            10.00000           100.00000           100.00000           100.00000           100.00000            10.00000            10.00000           100.00000           100.00000           100.00000           100.00000            10.00000           100.00000            10.00000           100.00000           100.00000           100.00000           100.00000           100.00000           100.00000           100.00000           100.00000           100.00000           100.00000           250.00000           100.00000           100.00000           100.00000           100.00000           100.00000           100.00000           100.00000           100.00000           100.00000           100.00000           100.00000           100.00000           100.00000           100.00000           100.00000           250.00000           100.00000            10.00000           100.00000           100.00000           100.00000           100.00000            10.00000           100.00000           100.00000           100.00000           100.00000           250.00000           250.00000           250.00000           100.00000           250.00000           250.00000           250.00000           250.00000           250.00000           250.00000           250.00000           250.00000           250.00000           250.00000           250.00000           250.00000           250.00000            10.00000           250.00000           250.00000           250.00000           250.00000           250.00000           250.00000           250.00000           100.00000           250.00000           250.00000           250.00000           250.00000           250.00000           100.00000            10.00000           100.00000           250.00000           250.00000           100.00000           100.00000            10.00000           100.00000            10.00000           250.00000           250.00000            10.00000           250.00000           250.00000            10.00000           250.00000           250.00000           250.00000           250.00000            10.00000           250.00000           250.00000           100.00000           250.00000            10.00000           250.00000           100.00000           250.00000           250.00000           100.00000           250.00000           100.00000           250.00000           250.00000           250.00000           100.00000           250.00000           100.00000           250.00000           250.00000           250.00000           250.00000            10.00000           100.00000            10.00000           250.00000           250.00000           100.00000           100.00000           100.00000            10.00000            10.00000           250.00000            10.00000           250.00000           250.00000           100.00000           250.00000           100.00000           250.00000           250.00000           250.00000           250.00000           250.00000           250.00000           250.00000           250.00000           100.00000            10.00000           250.00000           100.00000           250.00000           100.00000           250.00000           100.00000           250.00000           250.00000           250.00000            10.00000           250.00000           100.00000            10.00000            10.00000           100.00000           250.00000           100.00000           250.00000           250.00000           250.00000           250.00000           100.00000           250.00000            10.00000           250.00000           250.00000           250.00000           100.00000           250.00000           250.00000           100.00000           250.00000           100.00000            10.00000           250.00000           100.00000           100.00000           250.00000           250.00000           250.00000           100.00000           250.00000           250.00000           250.00000           250.00000           250.00000           250.00000           100.00000           100.00000           250.00000           250.00000            10.00000            10.00000           100.00000           250.00000           250.00000           250.00000           100.00000           250.00000           250.00000           250.00000           250.00000           250.00000           250.00000           100.00000            10.00000           250.00000           250.00000           250.00000           250.00000            10.00000            10.00000           100.00000           250.00000           250.00000           250.00000           100.00000           100.00000           100.00000           250.00000           250.00000            10.00000           250.00000           250.00000           250.00000           250.00000           250.00000           250.00000           250.00000           250.00000           100.00000           250.00000           100.00000           250.00000           250.00000           250.00000           250.00000           250.00000           250.00000            10.00000            10.00000           250.00000           250.00000           100.00000           250.00000           250.00000            10.00000           250.00000           100.00000           250.00000