# vtk DataFile Version 3.0
Output from cR2
ASCII
DATASET UNSTRUCTURED_GRID
POINTS       9450 double
     0.00000     0.00000   0.
     0.00000    -0.50000   0.
     0.00000    -1.00000   0.
     0.00000    -1.50000   0.
     0.00000    -2.00000   0.
     0.00000    -2.50000   0.
     0.00000    -3.00000   0.
     0.00000    -3.50000   0.
     0.00000    -4.00000   0.
     0.00000    -4.50000   0.
     0.00000    -5.00000   0.
     0.00000    -5.50000   0.
     0.00000    -6.00000   0.
     0.00000    -6.50000   0.
     0.00000    -7.00000   0.
     0.00000    -7.50000   0.
     0.00000    -8.00000   0.
     0.00000    -8.50000   0.
     0.00000    -9.00000   0.
     0.00000    -9.50000   0.
     0.00000   -10.00000   0.
     0.00000   -10.50000   0.
     0.00000   -11.00000   0.
     0.00000   -11.50000   0.
     0.00000   -12.00000   0.
     0.00000   -12.50000   0.
     0.00000   -13.00000   0.
     0.00000   -13.50000   0.
     0.00000   -14.00000   0.
     0.00000   -14.50000   0.
     0.00000   -15.00000   0.
     0.00000   -15.50000   0.
     0.00000   -16.00000   0.
     0.00000   -16.50000   0.
     0.00000   -17.00000   0.
     0.00000   -17.50000   0.
     0.00000   -18.00000   0.
     0.00000   -18.50000   0.
     0.00000   -19.00000   0.
     0.00000   -19.50000   0.
     0.00000   -20.00000   0.
     0.00000   -20.50000   0.
     0.00000   -21.00000   0.
     0.00000   -21.50000   0.
     0.00000   -22.00000   0.
     0.00000   -22.50000   0.
     0.00000   -23.00000   0.
     0.00000   -23.50000   0.
     0.00000   -24.00000   0.
     0.00000   -25.00000   0.
     0.50000     0.00000   0.
     0.50000    -0.50000   0.
     0.50000    -1.00000   0.
     0.50000    -1.50000   0.
     0.50000    -2.00000   0.
     0.50000    -2.50000   0.
     0.50000    -3.00000   0.
     0.50000    -3.50000   0.
     0.50000    -4.00000   0.
     0.50000    -4.50000   0.
     0.50000    -5.00000   0.
     0.50000    -5.50000   0.
     0.50000    -6.00000   0.
     0.50000    -6.50000   0.
     0.50000    -7.00000   0.
     0.50000    -7.50000   0.
     0.50000    -8.00000   0.
     0.50000    -8.50000   0.
     0.50000    -9.00000   0.
     0.50000    -9.50000   0.
     0.50000   -10.00000   0.
     0.50000   -10.50000   0.
     0.50000   -11.00000   0.
     0.50000   -11.50000   0.
     0.50000   -12.00000   0.
     0.50000   -12.50000   0.
     0.50000   -13.00000   0.
     0.50000   -13.50000   0.
     0.50000   -14.00000   0.
     0.50000   -14.50000   0.
     0.50000   -15.00000   0.
     0.50000   -15.50000   0.
     0.50000   -16.00000   0.
     0.50000   -16.50000   0.
     0.50000   -17.00000   0.
     0.50000   -17.50000   0.
     0.50000   -18.00000   0.
     0.50000   -18.50000   0.
     0.50000   -19.00000   0.
     0.50000   -19.50000   0.
     0.50000   -20.00000   0.
     0.50000   -20.50000   0.
     0.50000   -21.00000   0.
     0.50000   -21.50000   0.
     0.50000   -22.00000   0.
     0.50000   -22.50000   0.
     0.50000   -23.00000   0.
     0.50000   -23.50000   0.
     0.50000   -24.00000   0.
     0.50000   -25.00000   0.
     1.00000     0.00000   0.
     1.00000    -0.50000   0.
     1.00000    -1.00000   0.
     1.00000    -1.50000   0.
     1.00000    -2.00000   0.
     1.00000    -2.50000   0.
     1.00000    -3.00000   0.
     1.00000    -3.50000   0.
     1.00000    -4.00000   0.
     1.00000    -4.50000   0.
     1.00000    -5.00000   0.
     1.00000    -5.50000   0.
     1.00000    -6.00000   0.
     1.00000    -6.50000   0.
     1.00000    -7.00000   0.
     1.00000    -7.50000   0.
     1.00000    -8.00000   0.
     1.00000    -8.50000   0.
     1.00000    -9.00000   0.
     1.00000    -9.50000   0.
     1.00000   -10.00000   0.
     1.00000   -10.50000   0.
     1.00000   -11.00000   0.
     1.00000   -11.50000   0.
     1.00000   -12.00000   0.
     1.00000   -12.50000   0.
     1.00000   -13.00000   0.
     1.00000   -13.50000   0.
     1.00000   -14.00000   0.
     1.00000   -14.50000   0.
     1.00000   -15.00000   0.
     1.00000   -15.50000   0.
     1.00000   -16.00000   0.
     1.00000   -16.50000   0.
     1.00000   -17.00000   0.
     1.00000   -17.50000   0.
     1.00000   -18.00000   0.
     1.00000   -18.50000   0.
     1.00000   -19.00000   0.
     1.00000   -19.50000   0.
     1.00000   -20.00000   0.
     1.00000   -20.50000   0.
     1.00000   -21.00000   0.
     1.00000   -21.50000   0.
     1.00000   -22.00000   0.
     1.00000   -22.50000   0.
     1.00000   -23.00000   0.
     1.00000   -23.50000   0.
     1.00000   -24.00000   0.
     1.00000   -25.00000   0.
     1.50000     0.00000   0.
     1.50000    -0.50000   0.
     1.50000    -1.00000   0.
     1.50000    -1.50000   0.
     1.50000    -2.00000   0.
     1.50000    -2.50000   0.
     1.50000    -3.00000   0.
     1.50000    -3.50000   0.
     1.50000    -4.00000   0.
     1.50000    -4.50000   0.
     1.50000    -5.00000   0.
     1.50000    -5.50000   0.
     1.50000    -6.00000   0.
     1.50000    -6.50000   0.
     1.50000    -7.00000   0.
     1.50000    -7.50000   0.
     1.50000    -8.00000   0.
     1.50000    -8.50000   0.
     1.50000    -9.00000   0.
     1.50000    -9.50000   0.
     1.50000   -10.00000   0.
     1.50000   -10.50000   0.
     1.50000   -11.00000   0.
     1.50000   -11.50000   0.
     1.50000   -12.00000   0.
     1.50000   -12.50000   0.
     1.50000   -13.00000   0.
     1.50000   -13.50000   0.
     1.50000   -14.00000   0.
     1.50000   -14.50000   0.
     1.50000   -15.00000   0.
     1.50000   -15.50000   0.
     1.50000   -16.00000   0.
     1.50000   -16.50000   0.
     1.50000   -17.00000   0.
     1.50000   -17.50000   0.
     1.50000   -18.00000   0.
     1.50000   -18.50000   0.
     1.50000   -19.00000   0.
     1.50000   -19.50000   0.
     1.50000   -20.00000   0.
     1.50000   -20.50000   0.
     1.50000   -21.00000   0.
     1.50000   -21.50000   0.
     1.50000   -22.00000   0.
     1.50000   -22.50000   0.
     1.50000   -23.00000   0.
     1.50000   -23.50000   0.
     1.50000   -24.00000   0.
     1.50000   -25.00000   0.
     2.00000     0.00000   0.
     2.00000    -0.50000   0.
     2.00000    -1.00000   0.
     2.00000    -1.50000   0.
     2.00000    -2.00000   0.
     2.00000    -2.50000   0.
     2.00000    -3.00000   0.
     2.00000    -3.50000   0.
     2.00000    -4.00000   0.
     2.00000    -4.50000   0.
     2.00000    -5.00000   0.
     2.00000    -5.50000   0.
     2.00000    -6.00000   0.
     2.00000    -6.50000   0.
     2.00000    -7.00000   0.
     2.00000    -7.50000   0.
     2.00000    -8.00000   0.
     2.00000    -8.50000   0.
     2.00000    -9.00000   0.
     2.00000    -9.50000   0.
     2.00000   -10.00000   0.
     2.00000   -10.50000   0.
     2.00000   -11.00000   0.
     2.00000   -11.50000   0.
     2.00000   -12.00000   0.
     2.00000   -12.50000   0.
     2.00000   -13.00000   0.
     2.00000   -13.50000   0.
     2.00000   -14.00000   0.
     2.00000   -14.50000   0.
     2.00000   -15.00000   0.
     2.00000   -15.50000   0.
     2.00000   -16.00000   0.
     2.00000   -16.50000   0.
     2.00000   -17.00000   0.
     2.00000   -17.50000   0.
     2.00000   -18.00000   0.
     2.00000   -18.50000   0.
     2.00000   -19.00000   0.
     2.00000   -19.50000   0.
     2.00000   -20.00000   0.
     2.00000   -20.50000   0.
     2.00000   -21.00000   0.
     2.00000   -21.50000   0.
     2.00000   -22.00000   0.
     2.00000   -22.50000   0.
     2.00000   -23.00000   0.
     2.00000   -23.50000   0.
     2.00000   -24.00000   0.
     2.00000   -25.00000   0.
     2.50000     0.00000   0.
     2.50000    -0.50000   0.
     2.50000    -1.00000   0.
     2.50000    -1.50000   0.
     2.50000    -2.00000   0.
     2.50000    -2.50000   0.
     2.50000    -3.00000   0.
     2.50000    -3.50000   0.
     2.50000    -4.00000   0.
     2.50000    -4.50000   0.
     2.50000    -5.00000   0.
     2.50000    -5.50000   0.
     2.50000    -6.00000   0.
     2.50000    -6.50000   0.
     2.50000    -7.00000   0.
     2.50000    -7.50000   0.
     2.50000    -8.00000   0.
     2.50000    -8.50000   0.
     2.50000    -9.00000   0.
     2.50000    -9.50000   0.
     2.50000   -10.00000   0.
     2.50000   -10.50000   0.
     2.50000   -11.00000   0.
     2.50000   -11.50000   0.
     2.50000   -12.00000   0.
     2.50000   -12.50000   0.
     2.50000   -13.00000   0.
     2.50000   -13.50000   0.
     2.50000   -14.00000   0.
     2.50000   -14.50000   0.
     2.50000   -15.00000   0.
     2.50000   -15.50000   0.
     2.50000   -16.00000   0.
     2.50000   -16.50000   0.
     2.50000   -17.00000   0.
     2.50000   -17.50000   0.
     2.50000   -18.00000   0.
     2.50000   -18.50000   0.
     2.50000   -19.00000   0.
     2.50000   -19.50000   0.
     2.50000   -20.00000   0.
     2.50000   -20.50000   0.
     2.50000   -21.00000   0.
     2.50000   -21.50000   0.
     2.50000   -22.00000   0.
     2.50000   -22.50000   0.
     2.50000   -23.00000   0.
     2.50000   -23.50000   0.
     2.50000   -24.00000   0.
     2.50000   -25.00000   0.
     3.00000     0.00000   0.
     3.00000    -0.50000   0.
     3.00000    -1.00000   0.
     3.00000    -1.50000   0.
     3.00000    -2.00000   0.
     3.00000    -2.50000   0.
     3.00000    -3.00000   0.
     3.00000    -3.50000   0.
     3.00000    -4.00000   0.
     3.00000    -4.50000   0.
     3.00000    -5.00000   0.
     3.00000    -5.50000   0.
     3.00000    -6.00000   0.
     3.00000    -6.50000   0.
     3.00000    -7.00000   0.
     3.00000    -7.50000   0.
     3.00000    -8.00000   0.
     3.00000    -8.50000   0.
     3.00000    -9.00000   0.
[...]
POINT_DATA      9450
CELL_DATA      9212
SCALARS Magnitude(ohm.m) double 1
LOOKUP_TABLE default
            77.40741            77.40741            80.36333            80.36333            83.39248            83.39248            85.95194            85.95194            87.95759            87.95759            89.45937            89.45937            90.55280            90.55280            91.32352            91.32352            91.84640            91.84640            92.18419            92.18419            92.38011            92.38011            92.46748            92.46748            92.47316            92.47316            92.41222            92.41222            92.29481            92.29481            92.13292            92.13292            91.93507            91.93507            91.70776            91.70776            91.45938            91.45938            91.19583            91.19583            90.91870            90.91870            90.63562            90.63562            90.34989            90.34989            90.06314            90.06314            89.92240            77.40741            77.40741            80.36333            80.36333            83.39248            83.39248            85.95194            85.95194            87.95759            87.95759            89.45937            89.45937            90.55280            90.55280            91.32352            91.32352            91.84640            91.84640            92.18419            92.18419            92.38011            92.38011            92.46748            92.46748            92.47316            92.47316            92.41222            92.41222            92.29481            92.29481            92.13292            92.13292            91.93507            91.93507            91.70776            91.70776            91.45938            91.45938            91.19583            91.19583            90.91870            90.91870            90.63562            90.63562            90.34989            90.34989            90.06314            90.06314            89.92240            77.42273            77.42273            81.17349            81.17349            84.55137            84.55137            87.22733            87.22733            89.23511            89.23511            90.70240            90.70240            91.75422            91.75422            92.49700            92.49700            93.00402            93.00402            93.32992            93.32992            93.51475            93.51475            93.58843            93.58843            93.57173            93.57173            93.47611            93.47611            93.31434            93.31434            93.09895            93.09895            92.83857            92.83857            92.54230            92.54230            92.21897            92.21897            91.87363            91.87363            91.51183            91.51183            91.13820            91.13820            90.75921            90.75921            90.37848            90.37848            90.18391            77.42273            77.42273            81.17349            81.17349            84.55137            84.55137            87.22733            87.22733            89.23511            89.23511            90.70240            90.70240            91.75422            91.75422            92.49700            92.49700            93.00402            93.00402            93.32992            93.32992            93.51475            93.51475            93.58843            93.58843            93.57173            93.57173            93.47611            93.47611            93.31434            93.31434            93.09895            93.09895            92.83857            92.83857            92.54230            92.54230            92.21897            92.21897            91.87363            91.87363            91.51183            91.51183            91.13820            91.13820            90.75921            90.75921            90.37848            90.37848            90.18391            83.46736            83.46736            84.37663            84.37663            86.50101            86.50101            88.55883            88.55883            90.22789            90.22789            91.51545            91.51545            92.50203            92.50203            93.24546            93.24546            93.79216            93.79216            94.17237            94.17237            94.40792            94.40792            94.51970            94.51970            94.52326            94.52326            94.43040            94.43040            94.25236            94.25236            94.00426            94.00426            93.69829            93.69829            93.34422            93.34422            92.95381            92.95381            92.53721            92.53721            92.09692            92.09692            91.63831            91.63831            91.16841            91.16841            90.68943            90.68943            90.44643            83.46736            83.46736            84.37663            84.37663            86.50101            86.50101            88.55883            88.55883            90.22789            90.22789            91.51545            91.51545            92.50203            92.50203            93.24546            93.24546            93.79216            93.79216            94.17237            94.17237            94.40792            94.40792            94.51970            94.51970            94.52326            94.52326            94.43040            94.43040            94.25236            94.25236            94.00426            94.00426            93.69829            93.69829            93.34422            93.34422            92.95381            92.95381            92.53721            92.53721            92.09692            92.09692            91.63831            91.63831            91.16841            91.16841            90.68943            90.68943            90.44643            84.56734            84.56734            86.25355            86.25355            87.64972            87.64972            88.96014            88.96014            90.18351            90.18351            91.30813            91.30813            92.32068            92.32068            93.20153            93.20153            93.93073            93.93073            94.49813            94.49813            94.90149            94.90149            95.14561            95.14561            95.24355            95.24355            95.20813            95.20813            95.05627            95.05627            94.80969            94.80969            94.48476            94.48476            94.09447            94.09447            93.65554            93.65554            93.17736            93.17736            92.66482            92.66482            92.12720            92.12720            91.57085            91.57085            91.00001            91.00001            90.70786            84.56734            84.56734            86.25355            86.25355            87.64972            87.64972            88.96014            88.96014            90.18351            90.18351            91.30813            91.30813            92.32068            92.32068            93.20153            93.20153            93.93073            93.93073            94.49813            94.49813            94.90149            94.90149            95.14561            95.14561            95.24355            95.24355            95.20813            95.20813            95.05627            95.05627            94.80969            94.80969            94.48476            94.48476            94.09447            94.09447            93.65554            93.65554            93.17736            93.17736            92.66482            92.66482            92.12720            92.12720            91.57085            91.57085            91.00001            91.00001            90.70786            88.38397            88.38397            87.56149            87.56149            87.41236            87.41236            87.71148            87.71148            88.45091            88.45091            89.52543            89.52543            90.76888            90.76888            92.01976            92.01976            93.15775            93.15775            94.10943            94.10943            94.84231            94.84231            95.35214            95.35214            95.64939            95.64939            95.75176            95.75176            95.68648            95.68648            95.48548            95.48548            95.17406            95.17406            94.77391            94.77391            94.30250            94.30250            93.77617            93.77617            93.20706            93.20706            92.59723            92.59723            91.95883            91.95883            91.30492            91.30492            90.96813            88.38397            88.38397            87.56149            87.56149            87.41236            87.41236            87.71148            87.71148            88.45091            88.45091            89.52543            89.52543            90.76888            90.76888            92.01976            92.01976            93.15775            93.15775            94.10943            94.10943            94.84231            94.84231            95.35214            95.35214            95.64939            95.64939            95.75176            95.75176            95.68648            95.68648            95.48548            95.48548            95.17406            95.17406            94.77391            94.77391            94.30250            94.30250            93.77617            93.77617            93.20706            93.20706            92.59723            92.59723            91.95883            91.95883            91.30492            91.30492            90.96813            88.29821            88.29821            88.03696            88.03696            86.02794            86.02794            84.76882            84.76882            84.82005            84.82005            85.91297            85.91297            87.59966            87.59966            89.48379            89.48379            91.29067            91.29067            92.86067            92.86067            94.12070            94.12070            95.05216            95.05216            95.67105            95.67105            96.00895            96.00895            96.10587            96.10587            96.00482            96.00482            95.74549            95.74549            95.36159            95.36159            94.88079            94.88079            94.32588            94.32588            93.70877            93.70877            93.04206            93.04206            92.33830            92.33830            91.60438            91.60438            91.22550            88.29821            88.29821            88.03696            88.03696            86.02794            86.02794            84.76882            84.76882            84.82005            84.82005            85.91297            85.91297            87.59966            87.59966            89.48379            89.48379            91.29067            91.29067            92.86067            92.86067            94.12070            94.12070            95.05216            95.05216            95.67105            95.67105            96.00895            96.00895            96.10587            96.10587            96.00482            96.00482            95.74549            95.74549            95.36159            95.36159            94.88079            94.88079            94.32588            94.32588            93.70877            93.70877            93.04206            93.04206            92.33830            92.33830            91.60438            91.60438            91.22550           105.72557           105.72557            94.62254            94.62254            85.83721            85.83721            81.00475            81.00475            79.65824            79.65824            80.63527            80.63527            82.87329            82.87329            85.59953            85.59953            88.30877            88.30877            90.71832            90.71832            92.69795            92.69795            94.21319            94.21319            95.28356            95.28356            95.95656            95.95656            96.29125            96.29125            96.34726            96.34726            96.18328            96.18328            95.84760            95.84760            95.37926            95.37926            94.81194            94.81194            94.16797            94.16797            93.45750            93.45750            92.69442            92.69442            91.89518            91.89518            91.48035           105.72557           105.72557            94.62254            94.62254            85.83721            85.83721            81.00475            81.00475            79.65824            79.65824            80.63527            80.63527            82.87329            82.87329            85.59953            85.59953            88.30877            88.30877            90.71832            90.71832            92.69795            92.69795            94.21319            94.21319            95.28356            95.28356            95.95656            95.95656            96.29125            96.29125            96.34726            96.34726            96.18328            96.18328            95.84760            95.84760            95.37926            95.37926            94.81194            94.81194            94.16797            94.16797            93.45750            93.45750            92.69442            92.69442            91.89518            91.89518            91.48035           121.92324           121.92324           105.37486           105.37486            87.31627            87.31627            77.04056            77.04056            73.54692            73.54692            74.17962            74.17962            76.96061            76.96061            80.61637            80.61637            84.36731            84.36731            87.77093            87.77093            90.62118            90.62118            92.85356            92.85356            94.48634            94.48634            95.58573            95.58573            96.23185            96.23185            96.50420            96.50420            96.47824            96.47824            96.22417            96.22417            95.79804            95.79804            95.23791            95.23791            94.57640            94.57640            93.83634            93.83634            93.03134            93.03134            92.17826            92.17826            91.72927           121.92324           121.92324           105.37486           105.37486            87.31627            87.31627            77.04056            77.04056            73.54692            73.54692            74.17962            74.17962            76.96061            76.96061            80.61637            80.61637            84.36731            84.36731            87.77093            87.77093            90.62118            90.62118            92.85356            92.85356            94.48634            94.48634            95.58573            95.58573            96.23185            96.23185            96.50420            96.50420            96.47824            96.47824            96.22417            96.22417            95.79804            95.79804            95.23791            95.23791            94.57640            94.57640            93.83634            93.83634            93.03134            93.03134            92.17826            92.17826            91.72927           159.15184           159.15184           125.31411           125.31411            90.97492            90.97492            73.16034            73.16034            67.05909            67.05909            67.19687            67.19687            70.42984            70.42984            74.97579            74.97579            79.77788            79.77788            84.23096            84.23096            88.02735            88.02735            91.05857            91.05857            93.33521            93.33521            94.92893            94.92893            95.94221            95.94221            96.47796            96.47796            96.63359            96.63359            96.49518            96.49518            96.13017            96.13017            95.59823            95.59823            94.93670            94.93670            94.17321            94.17321            93.33988            93.33988            92.44687            92.44687            91.97550           159.15184           159.15184           125.31411           125.31411            90.97492            90.97492            73.16034            73.16034            67.05909            67.05909            67.19687            67.19687            70.42984            70.42984            74.97579            74.97579            79.77788            79.77788            84.23096            84.23096            88.02735            88.02735            91.05857            91.05857            93.33521            93.33521            94.92893            94.92893            95.94221            95.94221            96.47796            96.47796            96.63359            96.63359            96.49518            96.49518            96.13017            96.13017            95.59823            95.59823            94.93670            94.93670            94.17321            94.17321            93.33988            93.33988            92.44687            92.44687            91.97550           215.97056           215.97056           151.61084           151.61084            94.41968            94.41968            68.91631            68.91631            60.61935            60.61935            60.35406            60.35406            63.93033            63.93033            69.21104            69.21104            74.94708            74.94708            80.38385            80.38385            85.11296            85.11296            88.96270            88.96270            91.91240            91.91240            94.03830            94.03830            95.45666            95.45666            96.28820            96.28820            96.65097            96.65097            96.65023            96.65023            96.37565            96.37565            95.88907            95.88907            95.24260            95.24260            94.48114            94.48114            93.62700            93.62700            92.70574            92.70574            92.21506           215.97056           215.97056           151.61084           151.61084            94.41968            94.41968            68.91631            68.91631            60.61935            60.61935            60.35406            60.35406            63.93033            63.93033            69.21104            69.21104            74.94708            74.94708            80.38385            80.38385            85.11296            85.11296            88.96270            88.96270            91.91240            91.91240            94.03830            94.03830            95.45666            95.45666            96.28820            96.28820            96.65097            96.65097            96.65023            96.65023            96.37565            96.37565            95.88907            95.88907            95.24260            95.24260            94.48114            94.48114            93.62700            93.62700            92.70574            92.70574            92.21506           254.01401           254.01401           163.44784           163.44784            93.20445            93.20445            64.09658            64.09658            54.80093            54.80093            54.30734            54.30734            58.06224            58.06224            63.83134